unknown system                          
   1.00000000000000     
     3.500000    0.000000    0.000000
     0.000000    3.500000    0.000000
     0.000000    0.000000    3.500000
   Pt   Pt   Pt
     1     1     2
Direct
  0.000000  0.000000  0.000000
  0.500000  0.500000  0.000000
  0.000000  0.500000  0.500000
  0.500000  0.000000  0.500000
 
   32   32   32
  373.31      373.65      369.52      349.69      306.39      242.62      171.78      109.93      66.843      42.022    
  28.475      21.608      18.139      15.850      13.851      12.259      11.629      12.259      13.851      15.850    
  18.139      21.608      28.475      42.022      66.843      109.93      171.78      242.62      306.39      349.69    
  369.52      373.65      373.65      372.77      365.59      342.42      297.09      233.44      164.56      105.42    
  64.574      40.880      27.554      20.539      16.922      14.728      13.064      11.843      11.374      11.843    
  13.064      14.728      16.922      20.539      27.554      40.880      64.574      105.42      164.56      233.44    
  297.09      342.42      365.59      372.77      369.52      365.59      350.89      319.71      269.99      207.58    
  144.65      93.148      58.501      37.922      25.385      18.135      14.201      12.241      11.383      11.059    
  10.977      11.059      11.383      12.241      14.201      18.135      25.385      37.922      58.501      93.148    
  144.65      207.58      269.99      319.71      350.89      365.59      349.69      342.42      319.71      280.70    
  228.16      170.03      116.83      76.471      50.480      34.283      23.356      16.269      12.171      10.493    
  10.467      11.065      11.383      11.065      10.467      10.493      12.171      16.269      23.356      34.283    
  50.480      76.471      116.83      170.03      228.16      280.70      319.71      342.42      306.39      297.09    
  269.99      228.16      178.00      128.40      87.629      59.636      42.583      31.156      22.735      16.644    
  12.892      11.541      12.027      13.149      13.691      13.149      12.027      11.541      12.892      16.644    
  22.735      31.156      42.583      59.636      87.629      128.40      178.00      228.16      269.99      297.09    
  242.62      233.44      207.58      170.03      128.40      90.870      63.118      46.086      36.119      29.223    
  23.900      19.728      17.072      16.282      17.019      18.241      18.811      18.241      17.019      16.282    
  17.072      19.728      23.900      29.223      36.119      46.086      63.118      90.870      128.40      170.03    
  207.58      233.44      171.78      164.56      144.65      116.83      87.629      63.118      46.509      37.031    
  31.660      28.475      26.250      24.641      23.929      24.367      25.685      27.079      27.670      27.079    
  25.685      24.367      23.929      24.641      26.250      28.475      31.660      37.031      46.509      63.118    
  87.629      116.83      144.65      164.56      109.93      105.42      93.148      76.471      59.636      46.086    
  37.031      31.717      29.236      28.525      28.877      30.116      32.292      35.252      38.411      40.868    
  41.801      40.868      38.411      35.252      32.292      30.116      28.877      28.525      29.236      31.717    
  37.031      46.086      59.636      76.471      93.148      105.42      66.843      64.574      58.501      50.480    
  42.583      36.119      31.660      29.236      28.497      29.223      31.575      35.861      42.031      49.592    
  57.347      63.252      65.463      63.252      57.347      49.592      42.031      35.861      31.575      29.223    
  28.497      29.236      31.660      36.119      42.583      50.480      58.501      64.574      42.022      40.880    
  37.922      34.283      31.156      29.223      28.475      28.525      29.223      31.137      35.454      43.439    
  56.419      73.361      90.527      103.27      107.97      103.27      90.527      73.361      56.419      43.439    
  35.454      31.137      29.223      28.525      28.475      29.223      31.156      34.283      37.922      40.880    
  28.475      27.554      25.385      23.356      22.735      23.900      26.250      28.877      31.575      35.454    
  42.946      58.299      82.965      113.38      142.69      163.69      171.30      163.69      142.69      113.38    
  82.965      58.299      42.946      35.454      31.575      28.877      26.250      23.900      22.735      23.356    
  25.385      27.554      21.608      20.539      18.135      16.269      16.644      19.728      24.641      30.116    
  35.861      43.439      58.299      85.637      124.60      168.51      208.16      235.36      244.99      235.36    
  208.16      168.51      124.60      85.637      58.299      43.439      35.861      30.116      24.641      19.728    
  16.644      16.269      18.135      20.539      18.139      16.922      14.201      12.171      12.892      17.072    
  23.929      32.292      42.031      56.419      82.965      124.60      176.68      229.61      273.65      302.13    
  311.89      302.13      273.65      229.61      176.68      124.60      82.965      56.419      42.031      32.292    
  23.929      17.072      12.892      12.171      14.201      16.922      15.850      14.728      12.241      10.493    
  11.541      16.282      24.367      35.252      49.592      73.361      113.38      168.51      229.61      285.02    
  326.40      350.83      358.75      350.83      326.40      285.02      229.61      168.51      113.38      73.361    
  49.592      35.252      24.367      16.282      11.541      10.493      12.241      14.728      13.851      13.064    
  11.383      10.467      12.027      17.019      25.685      38.411      57.347      90.527      142.69      208.16    
  273.65      326.40      360.64      378.01      383.05      378.01      360.64      326.40      273.65      208.16    
  142.69      90.527      57.347      38.411      25.685      17.019      12.027      10.467      11.383      13.064    
  12.259      11.843      11.059      11.065      13.149      18.241      27.079      40.868      63.252      103.27    
  163.69      235.36      302.13      350.83      378.01      389.01      391.52      389.01      378.01      350.83    
  302.13      235.36      163.69      103.27      63.252      40.868      27.079      18.241      13.149      11.065    
  11.059      11.843      11.629      11.374      10.977      11.383      13.691      18.811      27.670      41.801    
  65.463      107.97      171.30      244.99      311.89      358.75      383.05      391.52      393.05      391.52    
  383.05      358.75      311.89      244.99      171.30      107.97      65.463      41.801      27.670      18.811    
  13.691      11.383      10.977      11.374      12.259      11.843      11.059      11.065      13.149      18.241    
  27.079      40.868      63.252      103.27      163.69      235.36      302.13      350.83      378.01      389.01    
  391.52      389.01      378.01      350.83      302.13      235.36      163.69      103.27      63.252      40.868    
  27.079      18.241      13.149      11.065      11.059      11.843      13.851      13.064      11.383      10.467    
  12.027      17.019      25.685      38.411      57.347      90.527      142.69      208.16      273.65      326.40    
  360.64      378.01      383.05      378.01      360.64      326.40      273.65      208.16      142.69      90.527    
  57.347      38.411      25.685      17.019      12.027      10.467      11.383      13.064      15.850      14.728    
  12.241      10.493      11.541      16.282      24.367      35.252      49.592      73.361      113.38      168.51    
  229.61      285.02      326.40      350.83      358.75      350.83      326.40      285.02      229.61      168.51    
  113.38      73.361      49.592      35.252      24.367      16.282      11.541      10.493      12.241      14.728    
  18.139      16.922      14.201      12.171      12.892      17.072      23.929      32.292      42.031      56.419    
  82.965      124.60      176.68      229.61      273.65      302.13      311.89      302.13      273.65      229.61    
  176.68      124.60      82.965      56.419      42.031      32.292      23.929      17.072      12.892      12.171    
  14.201      16.922      21.608      20.539      18.135      16.269      16.644      19.728      24.641      30.116    
  35.861      43.439      58.299      85.637      124.60      168.51      208.16      235.36      244.99      235.36    
  208.16      168.51      124.60      85.637      58.299      43.439      35.861      30.116      24.641      19.728    
  16.644      16.269      18.135      20.539      28.475      27.554      25.385      23.356      22.735      23.900    
  26.250      28.877      31.575      35.454      42.946      58.299      82.965      113.38      142.69      163.69    
  171.30      163.69      142.69      113.38      82.965      58.299      42.946      35.454      31.575      28.877    
  26.250      23.900      22.735      23.356      25.385      27.554      42.022      40.880      37.922      34.283    
  31.156      29.223      28.475      28.525      29.223      31.137      35.454      43.439      56.419      73.361    
  90.527      103.27      107.97      103.27      90.527      73.361      56.419      43.439      35.454      31.137    
  29.223      28.525      28.475      29.223      31.156      34.283      37.922      40.880      66.843      64.574    
  58.501      50.480      42.583      36.119      31.660      29.236      28.497      29.223      31.575      35.861    
  42.031      49.592      57.347      63.252      65.463      63.252      57.347      49.592      42.031      35.861    
  31.575      29.223      28.497      29.236      31.660      36.119      42.583      50.480      58.501      64.574    
  109.93      105.42      93.148      76.471      59.636      46.086      37.031      31.717      29.236      28.525    
  28.877      30.116      32.292      35.252      38.411      40.868      41.801      40.868      38.411      35.252    
  32.292      30.116      28.877      28.525      29.236      31.717      37.031      46.086      59.636      76.471    
  93.148      105.42      171.78      164.56      144.65      116.83      87.629      63.118      46.509      37.031    
  31.660      28.475      26.250      24.641      23.929      24.367      25.685      27.079      27.670      27.079    
  25.685      24.367      23.929      24.641      26.250      28.475      31.660      37.031      46.509      63.118    
  87.629      116.83      144.65      164.56      242.62      233.44      207.58      170.03      128.40      90.870    
  63.118      46.086      36.119      29.223      23.900      19.728      17.072      16.282      17.019      18.241    
  18.811      18.241      17.019      16.282      17.072      19.728      23.900      29.223      36.119      46.086    
  63.118      90.870      128.40      170.03      207.58      233.44      306.39      297.09      269.99      228.16    
  178.00      128.40      87.629      59.636      42.583      31.156      22.735      16.644      12.892      11.541    
  12.027      13.149      13.691      13.149      12.027      11.541      12.892      16.644      22.735      31.156    
  42.583      59.636      87.629      128.40      178.00      228.16      269.99      297.09      349.69      342.42    
  319.71      280.70      228.16      170.03      116.83      76.471      50.480      34.283      23.356      16.269    
  12.171      10.493      10.467      11.065      11.383      11.065      10.467      10.493      12.171      16.269    
  23.356      34.283      50.480      76.471      116.83      170.03      228.16      280.70      319.71      342.42    
  369.52      365.59      350.89      319.71      269.99      207.58      144.65      93.148      58.501      37.922    
  25.385      18.135      14.201      12.241      11.383      11.059      10.977      11.059      11.383      12.241    
  14.201      18.135      25.385      37.922      58.501      93.148      144.65      207.58      269.99      319.71    
  350.89      365.59      373.65      372.77      365.59      342.42      297.09      233.44      164.56      105.42    
  64.574      40.880      27.554      20.539      16.922      14.728      13.064      11.843      11.374      11.843    
  13.064      14.728      16.922      20.539      27.554      40.880      64.574      105.42      164.56      233.44    
  297.09      342.42      365.59      372.77      373.26      372.49      365.54      342.49      297.05      233.16    
  164.14      105.09      64.496      41.050      27.842      20.826      17.165      14.952      13.313      12.137    
  11.689      12.137      13.313      14.952      17.165      20.826      27.842      41.050      64.496      105.09    
  164.14      233.16      297.05      342.49      365.54      372.49      372.49      370.62      360.94      334.96    
  287.85      224.30      157.28      100.84      62.356      39.953      26.976      19.870      16.123      14.039    
  12.736      11.916      11.619      11.916      12.736      14.039      16.123      19.870      26.976      39.953    
  62.356      100.84      157.28      224.30      287.85      334.96      360.94      370.62      365.54      360.94    
  344.59      311.68      261.13      199.37      138.37      89.277      56.630      37.112      24.946      17.741    
  13.827      12.056      11.552      11.578      11.643      11.578      11.552      12.056      13.827      17.741    
  24.946      37.112      56.630      89.277      138.37      199.37      261.13      311.68      344.59      360.94    
  342.49      334.96      311.68      272.30      220.11      163.25      111.96      73.586      49.066      33.623    
  23.065      16.163      12.236      10.809      11.095      11.960      12.383      11.960      11.095      10.809    
  12.236      16.163      23.065      33.623      49.066      73.586      111.96      163.25      220.11      272.30    
  311.68      334.96      297.05      287.85      261.13      220.11      171.25      123.34      84.312      57.761    
  41.603      30.639      22.532      16.690      13.176      12.064      12.765      14.040      14.639      14.040    
  12.765      12.064      13.176      16.690      22.532      30.639      41.603      57.761      84.312      123.34    
  171.25      220.11      261.13      287.85      233.16      224.30      199.37      163.25      123.34      87.507    
  61.152      45.016      35.461      28.814      23.696      19.724      17.249      16.593      17.405      18.656    
  19.231      18.656      17.405      16.593      17.249      19.724      23.696      28.814      35.461      45.016    
  61.152      87.507      123.34      163.25      199.37      224.30      164.14      157.28      138.37      111.96    
  84.312      61.152      45.469      36.424      31.227      28.131      25.976      24.429      23.745      24.150    
  25.384      26.692      27.246      26.692      25.384      24.150      23.745      24.429      25.976      28.131    
  31.227      36.424      45.469      61.152      84.312      111.96      138.37      157.28      105.09      100.84    
  89.277      73.586      57.761      45.016      36.424      31.330      28.926      28.207      28.504      29.642    
  31.658      34.405      37.336      39.617      40.482      39.617      37.336      34.405      31.658      29.642    
  28.504      28.207      28.926      31.330      36.424      45.016      57.761      73.586      89.277      100.84    
  64.496      62.356      56.630      49.066      41.603      35.461      31.227      28.926      28.216      28.887    
  31.096      35.142      40.985      48.095      55.356      60.879      62.947      60.879      55.356      48.095    
  40.985      35.142      31.096      28.887      28.216      28.926      31.227      35.461      41.603      49.066    
  56.630      62.356      41.050      39.953      37.112      33.623      30.639      28.814      28.131      28.207    
  28.887      30.712      34.830      42.415      54.641      70.599      86.796      98.841      103.28      98.841    
  86.796      70.599      54.641      42.415      34.830      30.712      28.887      28.207      28.131      28.814    
  30.639      33.623      37.112      39.953      27.842      26.976      24.946      23.065      22.532      23.696    
  25.976      28.504      31.096      34.830      41.964      56.402      79.631      108.39      136.21      156.22    
  163.48      156.22      136.21      108.39      79.631      56.402      41.964      34.830      31.096      28.504    
  25.976      23.696      22.532      23.065      24.946      26.976      20.826      19.870      17.741      16.163    
  16.690      19.724      24.429      29.642      35.142      42.415      56.402      82.101      118.89      160.61    
  198.54      224.74      234.05      224.74      198.54      160.61      118.89      82.101      56.402      42.415    
  35.142      29.642      24.429      19.724      16.690      16.163      17.741      19.870      17.165      16.123    
  13.827      12.236      13.176      17.249      23.745      31.658      40.985      54.641      79.631      118.89    
  168.30      219.04      261.78      289.77      299.45      289.77      261.78      219.04      168.30      118.89    
  79.631      54.641      40.985      31.658      23.745      17.249      13.176      12.236      13.827      16.123    
  14.952      14.039      12.056      10.809      12.064      16.593      24.150      34.405      48.095      70.599    
  108.39      160.61      219.04      272.93      314.19      339.24      347.53      339.24      314.19      272.93    
  219.04      160.61      108.39      70.599      48.095      34.405      24.150      16.593      12.064      10.809    
  12.056      14.039      13.313      12.736      11.552      11.095      12.765      17.405      25.384      37.336    
  55.356      86.796      136.21      198.54      261.78      314.19      349.93      369.33      375.30      369.33    
  349.93      314.19      261.78      198.54      136.21      86.796      55.356      37.336      25.384      17.405    
  12.765      11.095      11.552      12.736      12.137      11.916      11.578      11.960      14.040      18.656    
  26.692      39.617      60.879      98.841      156.22      224.74      289.77      339.24      369.33      383.57    
  387.48      383.57      369.33      339.24      289.77      224.74      156.22      98.841      60.879      39.617    
  26.692      18.656      14.040      11.960      11.578      11.916      11.689      11.619      11.643      12.383    
  14.639      19.231      27.246      40.482      62.947      103.28      163.48      234.05      299.45      347.53    
  375.30      387.48      390.58      387.48      375.30      347.53      299.45      234.05      163.48      103.28    
  62.947      40.482      27.246      19.231      14.639      12.383      11.643      11.619      12.137      11.916    
  11.578      11.960      14.040      18.656      26.692      39.617      60.879      98.841      156.22      224.74    
  289.77      339.24      369.33      383.57      387.48      383.57      369.33      339.24      289.77      224.74    
  156.22      98.841      60.879      39.617      26.692      18.656      14.040      11.960      11.578      11.916    
  13.313      12.736      11.552      11.095      12.765      17.405      25.384      37.336      55.356      86.796    
  136.21      198.54      261.78      314.19      349.93      369.33      375.30      369.33      349.93      314.19    
  261.78      198.54      136.21      86.796      55.356      37.336      25.384      17.405      12.765      11.095    
  11.552      12.736      14.952      14.039      12.056      10.809      12.064      16.593      24.150      34.405    
  48.095      70.599      108.39      160.61      219.04      272.93      314.19      339.24      347.53      339.24    
  314.19      272.93      219.04      160.61      108.39      70.599      48.095      34.405      24.150      16.593    
  12.064      10.809      12.056      14.039      17.165      16.123      13.827      12.236      13.176      17.249    
  23.745      31.658      40.985      54.641      79.631      118.89      168.30      219.04      261.78      289.77    
  299.45      289.77      261.78      219.04      168.30      118.89      79.631      54.641      40.985      31.658    
  23.745      17.249      13.176      12.236      13.827      16.123      20.826      19.870      17.741      16.163    
  16.690      19.724      24.429      29.642      35.142      42.415      56.402      82.101      118.89      160.61    
  198.54      224.74      234.05      224.74      198.54      160.61      118.89      82.101      56.402      42.415    
  35.142      29.642      24.429      19.724      16.690      16.163      17.741      19.870      27.842      26.976    
  24.946      23.065      22.532      23.696      25.976      28.504      31.096      34.830      41.964      56.402    
  79.631      108.39      136.21      156.22      163.48      156.22      136.21      108.39      79.631      56.402    
  41.964      34.830      31.096      28.504      25.976      23.696      22.532      23.065      24.946      26.976    
  41.050      39.953      37.112      33.623      30.639      28.814      28.131      28.207      28.887      30.712    
  34.830      42.415      54.641      70.599      86.796      98.841      103.28      98.841      86.796      70.599    
  54.641      42.415      34.830      30.712      28.887      28.207      28.131      28.814      30.639      33.623    
  37.112      39.953      64.496      62.356      56.630      49.066      41.603      35.461      31.227      28.926    
  28.216      28.887      31.096      35.142      40.985      48.095      55.356      60.879      62.947      60.879    
  55.356      48.095      40.985      35.142      31.096      28.887      28.216      28.926      31.227      35.461    
  41.603      49.066      56.630      62.356      105.09      100.84      89.277      73.586      57.761      45.016    
  36.424      31.330      28.926      28.207      28.504      29.642      31.658      34.405      37.336      39.617    
  40.482      39.617      37.336      34.405      31.658      29.642      28.504      28.207      28.926      31.330    
  36.424      45.016      57.761      73.586      89.277      100.84      164.14      157.28      138.37      111.96    
  84.312      61.152      45.469      36.424      31.227      28.131      25.976      24.429      23.745      24.150    
  25.384      26.692      27.246      26.692      25.384      24.150      23.745      24.429      25.976      28.131    
  31.227      36.424      45.469      61.152      84.312      111.96      138.37      157.28      233.16      224.30    
  199.37      163.25      123.34      87.507      61.152      45.016      35.461      28.814      23.696      19.724    
  17.249      16.593      17.405      18.656      19.231      18.656      17.405      16.593      17.249      19.724    
  23.696      28.814      35.461      45.016      61.152      87.507      123.34      163.25      199.37      224.30    
  297.05      287.85      261.13      220.11      171.25      123.34      84.312      57.761      41.603      30.639    
  22.532      16.690      13.176      12.064      12.765      14.040      14.639      14.040      12.765      12.064    
  13.176      16.690      22.532      30.639      41.603      57.761      84.312      123.34      171.25      220.11    
  261.13      287.85      342.49      334.96      311.68      272.30      220.11      163.25      111.96      73.586    
  49.066      33.623      23.065      16.163      12.236      10.809      11.095      11.960      12.383      11.960    
  11.095      10.809      12.236      16.163      23.065      33.623      49.066      73.586      111.96      163.25    
  220.11      272.30      311.68      334.96      365.54      360.94      344.59      311.68      261.13      199.37    
  138.37      89.277      56.630      37.112      24.946      17.741      13.827      12.056      11.552      11.578    
  11.643      11.578      11.552      12.056      13.827      17.741      24.946      37.112      56.630      89.277    
  138.37      199.37      261.13      311.68      344.59      360.94      372.49      370.62      360.94      334.96    
  287.85      224.30      157.28      100.84      62.356      39.953      26.976      19.870      16.123      14.039    
  12.736      11.916      11.619      11.916      12.736      14.039      16.123      19.870      26.976      39.953    
  62.356      100.84      157.28      224.30      287.85      334.96      360.94      370.62      367.96      364.38    
  350.38      319.51      269.36      206.20      142.93      91.875      58.200      38.491      26.330      19.039    
  14.921      12.876      12.105      11.941      11.937      11.941      12.105      12.876      14.921      19.039    
  26.330      38.491      58.200      91.875      142.93      206.20      269.36      319.51      350.38      364.38    
  364.38      360.03      344.14      311.43      260.57      198.29      137.07      88.342      56.407      37.511    
  25.605      18.361      14.310      12.478      12.041      12.188      12.311      12.188      12.041      12.478    
  14.310      18.361      25.605      37.511      56.407      88.342      137.07      198.29      260.57      311.43    
  344.14      360.03      350.38      344.14      323.84      287.05      235.23      176.10      120.95      78.746    
  51.609      34.978      23.916      16.909      13.061      11.730      12.058      12.917      13.331      12.917    
  12.058      11.730      13.061      16.909      23.916      34.978      51.609      78.746      120.95      176.10    
  235.23      287.05      323.84      344.14      319.51      311.43      287.05      247.35      196.88      144.15    
  98.538      65.752      45.261      31.884      22.391      16.023      12.533      11.692      12.691      14.167    
  14.834      14.167      12.691      11.692      12.533      16.023      22.391      31.884      45.261      65.752    
  98.538      144.15      196.88      247.35      287.05      311.43      269.36      260.57      235.23      196.88    
  152.08      109.18      75.194      52.673      38.929      29.270      22.051      16.878      13.959      13.398    
  14.570      16.170      16.886      16.170      14.570      13.398      13.959      16.878      22.051      29.270    
  38.929      52.673      75.194      109.18      152.08      196.88      235.23      260.57      206.20      198.29    
  176.10      144.15      109.18      78.208      55.769      42.084      33.655      27.720      23.174      19.724    
  17.691      17.326      18.262      19.530      20.100      19.530      18.262      17.326      17.691      19.724    
  23.174      27.720      33.655      42.084      55.769      78.208      109.18      144.15      176.10      198.29    
  142.93      137.07      120.95      98.538      75.194      55.769      42.605      34.723      30.036      27.203    
  25.241      23.851      23.212      23.490      24.463      25.512      25.958      25.512      24.463      23.490    
  23.212      23.851      25.241      27.203      30.036      34.723      42.605      55.769      75.194      98.538    
  120.95      137.07      91.875      88.342      78.746      65.752      52.673      42.084      34.723      30.251    
  28.074      27.350      27.503      28.366      29.945      32.110      34.423      36.223      36.905      36.223    
  34.423      32.110      29.945      28.366      27.503      27.350      28.074      30.251      34.723      42.084    
  52.673      65.752      78.746      88.342      58.200      56.407      51.609      45.261      38.929      33.655    
  30.036      28.074      27.456      27.991      29.825      33.237      38.213      44.190      50.200      54.750    
  56.452      54.750      50.200      44.190      38.213      33.237      29.825      27.991      27.456      28.074    
  30.036      33.655      38.929      45.261      51.609      56.407      38.491      37.511      34.978      31.884    
  29.270      27.720      27.203      27.350      27.991      29.595      33.197      39.797      50.150      63.615    
  77.337      87.586      91.376      87.586      77.337      63.615      50.150      39.797      33.197      29.595    
  27.991      27.350      27.203      27.720      29.270      31.884      34.978      37.511      26.330      25.605    
  23.916      22.391      22.051      23.174      25.241      27.503      29.825      33.197      39.500      51.703    
  71.314      95.824      119.81      137.22      143.58      137.22      119.81      95.824      71.314      51.703    
  39.500      33.197      29.825      27.503      25.241      23.174      22.051      22.391      23.916      25.605    
  19.039      18.361      16.909      16.023      16.878      19.724      23.851      28.366      33.237      39.797    
  51.703      73.325      104.58      140.64      174.07      197.56      206.00      197.56      174.07      140.64    
  104.58      73.325      51.703      39.797      33.237      28.366      23.851      19.724      16.878      16.023    
  16.909      18.361      14.921      14.310      13.061      12.533      13.959      17.691      23.212      29.945    