unknown system                          
   1.00000000000000     
     3.500000    0.000000    0.000000
     0.000000    3.500000    0.000000
     0.000000    0.000000    3.500000
   Pt   Pt   Pt
     1     1     2
Direct
  0.000000  0.000000  0.000000
  0.500000  0.500000  0.000000
  0.000000  0.500000  0.500000
  0.500000  0.000000  0.500000
 
   32   32   32
 0.37330773474E+03 0.37365073756E+03 0.36951863615E+03 0.34969298381E+03 0.30638914770E+03
 0.24261940954E+03 0.17177733754E+03 0.10993307862E+03 0.66843223627E+02 0.42021812287E+02
 0.28475412988E+02 0.21608331365E+02 0.18138797326E+02 0.15850315833E+02 0.13850752283E+02
 0.12258772473E+02 0.11629065403E+02 0.12258772473E+02 0.13850752283E+02 0.15850315833E+02
 0.18138797326E+02 0.21608331365E+02 0.28475412988E+02 0.42021812287E+02 0.66843223627E+02
 0.10993307862E+03 0.17177733754E+03 0.24261940954E+03 0.30638914770E+03 0.34969298381E+03
 0.36951863615E+03 0.37365073756E+03 0.37365073756E+03 0.37276892834E+03 0.36558749821E+03
 0.34242105997E+03 0.29709074377E+03 0.23344045012E+03 0.16456423804E+03 0.10542157041E+03
 0.64573888165E+02 0.40879680797E+02 0.27553873291E+02 0.20538941599E+02 0.16921704345E+02
 0.14728127344E+02 0.13063873417E+02 0.11843227429E+02 0.11373670366E+02 0.11843227429E+02
 0.13063873417E+02 0.14728127344E+02 0.16921704345E+02 0.20538941599E+02 0.27553873291E+02
 0.40879680797E+02 0.64573888165E+02 0.10542157041E+03 0.16456423804E+03 0.23344045012E+03
 0.29709074377E+03 0.34242105997E+03 0.36558749821E+03 0.37276892834E+03 0.36951863615E+03
 0.36558749821E+03 0.35088800752E+03 0.31971135277E+03 0.26998641695E+03 0.20758207617E+03
 0.14465075669E+03 0.93147588805E+02 0.58501304263E+02 0.37922130126E+02 0.25385137082E+02
 0.18135010594E+02 0.14201262269E+02 0.12241263207E+02 0.11383492653E+02 0.11059048596E+02
 0.10976896426E+02 0.11059048596E+02 0.11383492653E+02 0.12241263207E+02 0.14201262269E+02
 0.18135010594E+02 0.25385137082E+02 0.37922130126E+02 0.58501304263E+02 0.93147588805E+02
 0.14465075669E+03 0.20758207617E+03 0.26998641695E+03 0.31971135277E+03 0.35088800752E+03
 0.36558749821E+03 0.34969298381E+03 0.34242105997E+03 0.31971135277E+03 0.28070273088E+03
 0.22816116642E+03 0.17003104330E+03 0.11682590198E+03 0.76470666531E+02 0.50480282011E+02
 0.34282973301E+02 0.23356101985E+02 0.16269365825E+02 0.12171086603E+02 0.10492708929E+02
 0.10467321417E+02 0.11065367626E+02 0.11383258672E+02 0.11065367626E+02 0.10467321417E+02
 0.10492708929E+02 0.12171086603E+02 0.16269365825E+02 0.23356101985E+02 0.34282973301E+02
 0.50480282011E+02 0.76470666531E+02 0.11682590198E+03 0.17003104330E+03 0.22816116642E+03
 0.28070273088E+03 0.31971135277E+03 0.34242105997E+03 0.30638914770E+03 0.29709074377E+03
 0.26998641695E+03 0.22816116642E+03 0.17800028677E+03 0.12840298547E+03 0.87629383610E+02
 0.59635837304E+02 0.42583207390E+02 0.31155817555E+02 0.22734609434E+02 0.16644071183E+02
 0.12892282885E+02 0.11541154391E+02 0.12026820875E+02 0.13148526632E+02 0.13691384676E+02
 0.13148526632E+02 0.12026820875E+02 0.11541154391E+02 0.12892282885E+02 0.16644071183E+02
 0.22734609434E+02 0.31155817555E+02 0.42583207390E+02 0.59635837304E+02 0.87629383610E+02
 0.12840298547E+03 0.17800028677E+03 0.22816116642E+03 0.26998641695E+03 0.29709074377E+03
 0.24261940954E+03 0.23344045012E+03 0.20758207617E+03 0.17003104330E+03 0.12840298547E+03
 0.90869648158E+02 0.63118371293E+02 0.46085612240E+02 0.36118968558E+02 0.29223292804E+02
 0.23899667299E+02 0.19727745316E+02 0.17071730234E+02 0.16281867395E+02 0.17019066706E+02
 0.18241104254E+02 0.18811080139E+02 0.18241104254E+02 0.17019066706E+02 0.16281867395E+02
 0.17071730234E+02 0.19727745316E+02 0.23899667299E+02 0.29223292804E+02 0.36118968558E+02
 0.46085612240E+02 0.63118371293E+02 0.90869648158E+02 0.12840298547E+03 0.17003104330E+03
 0.20758207617E+03 0.23344045012E+03 0.17177733754E+03 0.16456423804E+03 0.14465075669E+03
 0.11682590198E+03 0.87629383610E+02 0.63118371293E+02 0.46509057949E+02 0.37031059109E+02
 0.31659587706E+02 0.28475495428E+02 0.26250048126E+02 0.24640702947E+02 0.23928509165E+02
 0.24366853986E+02 0.25684850109E+02 0.27079103396E+02 0.27670283375E+02 0.27079103396E+02
 0.25684850109E+02 0.24366853986E+02 0.23928509165E+02 0.24640702947E+02 0.26250048126E+02
 0.28475495428E+02 0.31659587706E+02 0.37031059109E+02 0.46509057949E+02 0.63118371293E+02
 0.87629383610E+02 0.11682590198E+03 0.14465075669E+03 0.16456423804E+03 0.10993307862E+03
 0.10542157041E+03 0.93147588805E+02 0.76470666531E+02 0.59635837304E+02 0.46085612240E+02
 0.37031059109E+02 0.31717122080E+02 0.29236441080E+02 0.28525116550E+02 0.28877045838E+02
 0.30115750118E+02 0.32291948228E+02 0.35252037227E+02 0.38410551862E+02 0.40868305650E+02
 0.41800671145E+02 0.40868305650E+02 0.38410551862E+02 0.35252037227E+02 0.32291948229E+02
 0.30115750118E+02 0.28877045839E+02 0.28525116550E+02 0.29236441080E+02 0.31717122080E+02
 0.37031059109E+02 0.46085612240E+02 0.59635837304E+02 0.76470666531E+02 0.93147588805E+02
 0.10542157041E+03 0.66843223628E+02 0.64573888165E+02 0.58501304263E+02 0.50480282011E+02
 0.42583207390E+02 0.36118968558E+02 0.31659587706E+02 0.29236441080E+02 0.28496883719E+02
 0.29222882362E+02 0.31575495653E+02 0.35861411552E+02 0.42031460873E+02 0.49592323255E+02
 0.57346509254E+02 0.63251802821E+02 0.65463397807E+02 0.63251802821E+02 0.57346509254E+02
 0.49592323255E+02 0.42031460873E+02 0.35861411553E+02 0.31575495654E+02 0.29222882362E+02
 0.28496883719E+02 0.29236441080E+02 0.31659587706E+02 0.36118968558E+02 0.42583207390E+02
 0.50480282011E+02 0.58501304263E+02 0.64573888165E+02 0.42021812287E+02 0.40879680797E+02
 0.37922130126E+02 0.34282973301E+02 0.31155817555E+02 0.29223292804E+02 0.28475495428E+02
 0.28525116550E+02 0.29222882362E+02 0.31136748464E+02 0.35453864605E+02 0.43439371980E+02
 0.56418833443E+02 0.73360556628E+02 0.90527416924E+02 0.10327030411E+03 0.10796550757E+03
 0.10327030411E+03 0.90527416924E+02 0.73360556628E+02 0.56418833443E+02 0.43439371980E+02
 0.35453864605E+02 0.31136748464E+02 0.29222882362E+02 0.28525116550E+02 0.28475495428E+02
 0.29223292804E+02 0.31155817555E+02 0.34282973301E+02 0.37922130126E+02 0.40879680797E+02
 0.28475412988E+02 0.27553873291E+02 0.25385137082E+02 0.23356101985E+02 0.22734609434E+02
 0.23899667299E+02 0.26250048126E+02 0.28877045838E+02 0.31575495653E+02 0.35453864605E+02
 0.42946021236E+02 0.58298614996E+02 0.82964679509E+02 0.11338206001E+03 0.14268924221E+03
 0.16369432609E+03 0.17129676082E+03 0.16369432609E+03 0.14268924221E+03 0.11338206001E+03
 0.82964679509E+02 0.58298614997E+02 0.42946021236E+02 0.35453864605E+02 0.31575495654E+02
 0.28877045839E+02 0.26250048126E+02 0.23899667299E+02 0.22734609434E+02 0.23356101985E+02
 0.25385137082E+02 0.27553873291E+02 0.21608331365E+02 0.20538941599E+02 0.18135010594E+02
 0.16269365825E+02 0.16644071183E+02 0.19727745316E+02 0.24640702947E+02 0.30115750118E+02
 0.35861411553E+02 0.43439371980E+02 0.58298614997E+02 0.85636648123E+02 0.12460103109E+03
 0.16851248442E+03 0.20815575524E+03 0.23536219147E+03 0.24499468821E+03 0.23536219147E+03
 0.20815575524E+03 0.16851248442E+03 0.12460103109E+03 0.85636648123E+02 0.58298614997E+02
 0.43439371980E+02 0.35861411553E+02 0.30115750118E+02 0.24640702947E+02 0.19727745316E+02
 0.16644071184E+02 0.16269365825E+02 0.18135010594E+02 0.20538941599E+02 0.18138797326E+02
 0.16921704345E+02 0.14201262269E+02 0.12171086603E+02 0.12892282885E+02 0.17071730234E+02
 0.23928509165E+02 0.32291948229E+02 0.42031460873E+02 0.56418833443E+02 0.82964679509E+02
 0.12460103109E+03 0.17667858038E+03 0.22961174525E+03 0.27364809511E+03 0.30212691907E+03
 0.31189275551E+03 0.30212691907E+03 0.27364809511E+03 0.22961174525E+03 0.17667858038E+03
 0.12460103109E+03 0.82964679509E+02 0.56418833443E+02 0.42031460873E+02 0.32291948229E+02
 0.23928509165E+02 0.17071730234E+02 0.12892282885E+02 0.12171086603E+02 0.14201262269E+02
 0.16921704345E+02 0.15850315833E+02 0.14728127344E+02 0.12241263207E+02 0.10492708929E+02
 0.11541154391E+02 0.16281867395E+02 0.24366853986E+02 0.35252037227E+02 0.49592323255E+02
 0.73360556628E+02 0.11338206001E+03 0.16851248442E+03 0.22961174525E+03 0.28501617216E+03
 0.32640056702E+03 0.35082599466E+03 0.35875356958E+03 0.35082599466E+03 0.32640056702E+03
 0.28501617216E+03 0.22961174525E+03 0.16851248442E+03 0.11338206001E+03 0.73360556628E+02
 0.49592323255E+02 0.35252037227E+02 0.24366853986E+02 0.16281867395E+02 0.11541154391E+02
 0.10492708929E+02 0.12241263207E+02 0.14728127344E+02 0.13850752283E+02 0.13063873417E+02
 0.11383492653E+02 0.10467321417E+02 0.12026820875E+02 0.17019066706E+02 0.25684850109E+02
 0.38410551862E+02 0.57346509254E+02 0.90527416924E+02 0.14268924221E+03 0.20815575524E+03
 0.27364809511E+03 0.32640056702E+03 0.36063900975E+03 0.37800849463E+03 0.38305182636E+03
 0.37800849463E+03 0.36063900975E+03 0.32640056702E+03 0.27364809511E+03 0.20815575524E+03
 0.14268924221E+03 0.90527416924E+02 0.57346509254E+02 0.38410551862E+02 0.25684850109E+02
 0.17019066706E+02 0.12026820875E+02 0.10467321417E+02 0.11383492653E+02 0.13063873417E+02
 0.12258772472E+02 0.11843227429E+02 0.11059048595E+02 0.11065367626E+02 0.13148526632E+02
 0.18241104254E+02 0.27079103396E+02 0.40868305650E+02 0.63251802821E+02 0.10327030411E+03
 0.16369432609E+03 0.23536219147E+03 0.30212691907E+03 0.35082599466E+03 0.37800849463E+03
 0.38900864332E+03 0.39152424156E+03 0.38900864332E+03 0.37800849463E+03 0.35082599466E+03
 0.30212691907E+03 0.23536219147E+03 0.16369432609E+03 0.10327030411E+03 0.63251802821E+02
 0.40868305650E+02 0.27079103396E+02 0.18241104254E+02 0.13148526632E+02 0.11065367626E+02
 0.11059048595E+02 0.11843227429E+02 0.11629065403E+02 0.11373670366E+02 0.10976896426E+02
 0.11383258672E+02 0.13691384676E+02 0.18811080139E+02 0.27670283375E+02 0.41800671145E+02
 0.65463397807E+02 0.10796550757E+03 0.17129676082E+03 0.24499468821E+03 0.31189275551E+03
 0.35875356958E+03 0.38305182636E+03 0.39152424156E+03 0.39304725326E+03 0.39152424156E+03
 0.38305182636E+03 0.35875356958E+03 0.31189275551E+03 0.24499468821E+03 0.17129676082E+03
 0.10796550757E+03 0.65463397807E+02 0.41800671145E+02 0.27670283375E+02 0.18811080139E+02
 0.13691384676E+02 0.11383258672E+02 0.10976896426E+02 0.11373670366E+02 0.12258772472E+02
 0.11843227429E+02 0.11059048595E+02 0.11065367626E+02 0.13148526632E+02 0.18241104254E+02
 0.27079103396E+02 0.40868305650E+02 0.63251802821E+02 0.10327030411E+03 0.16369432609E+03
 0.23536219147E+03 0.30212691907E+03 0.35082599466E+03 0.37800849463E+03 0.38900864332E+03
 0.39152424156E+03 0.38900864332E+03 0.37800849463E+03 0.35082599466E+03 0.30212691907E+03
 0.23536219147E+03 0.16369432609E+03 0.10327030411E+03 0.63251802821E+02 0.40868305650E+02
 0.27079103396E+02 0.18241104254E+02 0.13148526632E+02 0.11065367626E+02 0.11059048595E+02
 0.11843227429E+02 0.13850752283E+02 0.13063873417E+02 0.11383492653E+02 0.10467321417E+02
 0.12026820875E+02 0.17019066706E+02 0.25684850109E+02 0.38410551862E+02 0.57346509254E+02
 0.90527416924E+02 0.14268924221E+03 0.20815575524E+03 0.27364809511E+03 0.32640056702E+03
 0.36063900975E+03 0.37800849463E+03 0.38305182636E+03 0.37800849463E+03 0.36063900975E+03
 0.32640056702E+03 0.27364809511E+03 0.20815575524E+03 0.14268924221E+03 0.90527416924E+02
 0.57346509254E+02 0.38410551862E+02 0.25684850109E+02 0.17019066706E+02 0.12026820875E+02
 0.10467321417E+02 0.11383492653E+02 0.13063873417E+02 0.15850315833E+02 0.14728127344E+02
 0.12241263207E+02 0.10492708929E+02 0.11541154391E+02 0.16281867395E+02 0.24366853986E+02
 0.35252037227E+02 0.49592323255E+02 0.73360556628E+02 0.11338206001E+03 0.16851248442E+03
 0.22961174525E+03 0.28501617216E+03 0.32640056702E+03 0.35082599466E+03 0.35875356958E+03
 0.35082599466E+03 0.32640056702E+03 0.28501617216E+03 0.22961174525E+03 0.16851248442E+03
 0.11338206001E+03 0.73360556628E+02 0.49592323255E+02 0.35252037227E+02 0.24366853986E+02
 0.16281867395E+02 0.11541154391E+02 0.10492708929E+02 0.12241263207E+02 0.14728127344E+02
 0.18138797326E+02 0.16921704345E+02 0.14201262269E+02 0.12171086603E+02 0.12892282885E+02
 0.17071730234E+02 0.23928509165E+02 0.32291948229E+02 0.42031460873E+02 0.56418833443E+02
 0.82964679509E+02 0.12460103109E+03 0.17667858038E+03 0.22961174525E+03 0.27364809511E+03
 0.30212691907E+03 0.31189275551E+03 0.30212691907E+03 0.27364809511E+03 0.22961174525E+03
 0.17667858038E+03 0.12460103109E+03 0.82964679509E+02 0.56418833443E+02 0.42031460873E+02
 0.32291948229E+02 0.23928509165E+02 0.17071730234E+02 0.12892282885E+02 0.12171086603E+02
 0.14201262269E+02 0.16921704345E+02 0.21608331365E+02 0.20538941599E+02 0.18135010594E+02
 0.16269365825E+02 0.16644071184E+02 0.19727745316E+02 0.24640702947E+02 0.30115750118E+02
 0.35861411553E+02 0.43439371980E+02 0.58298614997E+02 0.85636648123E+02 0.12460103109E+03
 0.16851248442E+03 0.20815575524E+03 0.23536219147E+03 0.24499468821E+03 0.23536219147E+03
 0.20815575524E+03 0.16851248442E+03 0.12460103109E+03 0.85636648123E+02 0.58298614997E+02
 0.43439371980E+02 0.35861411553E+02 0.30115750118E+02 0.24640702947E+02 0.19727745316E+02
 0.16644071183E+02 0.16269365825E+02 0.18135010594E+02 0.20538941599E+02 0.28475412988E+02
 0.27553873291E+02 0.25385137082E+02 0.23356101985E+02 0.22734609434E+02 0.23899667299E+02
 0.26250048126E+02 0.28877045839E+02 0.31575495654E+02 0.35453864605E+02 0.42946021236E+02
 0.58298614997E+02 0.82964679509E+02 0.11338206001E+03 0.14268924221E+03 0.16369432609E+03
 0.17129676082E+03 0.16369432609E+03 0.14268924221E+03 0.11338206001E+03 0.82964679509E+02
 0.58298614996E+02 0.42946021236E+02 0.35453864605E+02 0.31575495653E+02 0.28877045838E+02
 0.26250048126E+02 0.23899667299E+02 0.22734609434E+02 0.23356101985E+02 0.25385137082E+02
 0.27553873291E+02 0.42021812287E+02 0.40879680797E+02 0.37922130126E+02 0.34282973301E+02
 0.31155817555E+02 0.29223292804E+02 0.28475495428E+02 0.28525116550E+02 0.29222882362E+02
 0.31136748464E+02 0.35453864605E+02 0.43439371980E+02 0.56418833443E+02 0.73360556628E+02
 0.90527416924E+02 0.10327030411E+03 0.10796550757E+03 0.10327030411E+03 0.90527416924E+02
 0.73360556628E+02 0.56418833443E+02 0.43439371980E+02 0.35453864605E+02 0.31136748464E+02
 0.29222882362E+02 0.28525116550E+02 0.28475495428E+02 0.29223292804E+02 0.31155817555E+02
 0.34282973301E+02 0.37922130126E+02 0.40879680797E+02 0.66843223628E+02 0.64573888165E+02
 0.58501304263E+02 0.50480282011E+02 0.42583207390E+02 0.36118968558E+02 0.31659587706E+02
 0.29236441080E+02 0.28496883719E+02 0.29222882362E+02 0.31575495654E+02 0.35861411553E+02
 0.42031460873E+02 0.49592323255E+02 0.57346509254E+02 0.63251802821E+02 0.65463397807E+02
 0.63251802821E+02 0.57346509254E+02 0.49592323255E+02 0.42031460873E+02 0.35861411552E+02
 0.31575495653E+02 0.29222882362E+02 0.28496883719E+02 0.29236441080E+02 0.31659587706E+02
 0.36118968558E+02 0.42583207390E+02 0.50480282011E+02 0.58501304263E+02 0.64573888165E+02
 0.10993307862E+03 0.10542157041E+03 0.93147588805E+02 0.76470666531E+02 0.59635837304E+02
 0.46085612240E+02 0.37031059109E+02 0.31717122080E+02 0.29236441080E+02 0.28525116550E+02
 0.28877045839E+02 0.30115750118E+02 0.32291948229E+02 0.35252037227E+02 0.38410551862E+02
 0.40868305650E+02 0.41800671145E+02 0.40868305650E+02 0.38410551862E+02 0.35252037227E+02
 0.32291948228E+02 0.30115750118E+02 0.28877045838E+02 0.28525116550E+02 0.29236441080E+02
 0.31717122080E+02 0.37031059109E+02 0.46085612240E+02 0.59635837304E+02 0.76470666531E+02
 0.93147588805E+02 0.10542157041E+03 0.17177733754E+03 0.16456423804E+03 0.14465075669E+03
 0.11682590198E+03 0.87629383610E+02 0.63118371293E+02 0.46509057949E+02 0.37031059109E+02
 0.31659587706E+02 0.28475495428E+02 0.26250048126E+02 0.24640702947E+02 0.23928509165E+02
 0.24366853986E+02 0.25684850109E+02 0.27079103396E+02 0.27670283375E+02 0.27079103396E+02
 0.25684850109E+02 0.24366853986E+02 0.23928509165E+02 0.24640702947E+02 0.26250048126E+02
 0.28475495428E+02 0.31659587706E+02 0.37031059109E+02 0.46509057949E+02 0.63118371293E+02
 0.87629383610E+02 0.11682590198E+03 0.14465075669E+03 0.16456423804E+03 0.24261940954E+03
 0.23344045012E+03 0.20758207617E+03 0.17003104330E+03 0.12840298547E+03 0.90869648158E+02
 0.63118371293E+02 0.46085612240E+02 0.36118968558E+02 0.29223292804E+02 0.23899667299E+02
 0.19727745316E+02 0.17071730234E+02 0.16281867395E+02 0.17019066706E+02 0.18241104254E+02
 0.18811080139E+02 0.18241104254E+02 0.17019066706E+02 0.16281867395E+02 0.17071730234E+02
 0.19727745316E+02 0.23899667299E+02 0.29223292804E+02 0.36118968558E+02 0.46085612240E+02
 0.63118371293E+02 0.90869648158E+02 0.12840298547E+03 0.17003104330E+03 0.20758207617E+03
 0.23344045012E+03 0.30638914770E+03 0.29709074377E+03 0.26998641695E+03 0.22816116642E+03
 0.17800028677E+03 0.12840298547E+03 0.87629383610E+02 0.59635837304E+02 0.42583207390E+02
 0.31155817555E+02 0.22734609434E+02 0.16644071183E+02 0.12892282885E+02 0.11541154391E+02
 0.12026820875E+02 0.13148526632E+02 0.13691384676E+02 0.13148526632E+02 0.12026820875E+02
 0.11541154391E+02 0.12892282885E+02 0.16644071183E+02 0.22734609434E+02 0.31155817555E+02
 0.42583207390E+02 0.59635837304E+02 0.87629383610E+02 0.12840298547E+03 0.17800028677E+03
 0.22816116642E+03 0.26998641695E+03 0.29709074377E+03 0.34969298381E+03 0.34242105997E+03
 0.31971135277E+03 0.28070273088E+03 0.22816116642E+03 0.17003104330E+03 0.11682590198E+03
 0.76470666531E+02 0.50480282011E+02 0.34282973301E+02 0.23356101985E+02 0.16269365825E+02
 0.12171086603E+02 0.10492708929E+02 0.10467321417E+02 0.11065367626E+02 0.11383258672E+02
 0.11065367626E+02 0.10467321417E+02 0.10492708929E+02 0.12171086603E+02 0.16269365825E+02
 0.23356101985E+02 0.34282973301E+02 0.50480282011E+02 0.76470666531E+02 0.11682590198E+03
 0.17003104330E+03 0.22816116642E+03 0.28070273088E+03 0.31971135277E+03 0.34242105997E+03
 0.36951863615E+03 0.36558749821E+03 0.35088800752E+03 0.31971135277E+03 0.26998641695E+03
 0.20758207617E+03 0.14465075669E+03 0.93147588805E+02 0.58501304263E+02 0.37922130126E+02
 0.25385137082E+02 0.18135010594E+02 0.14201262269E+02 0.12241263207E+02 0.11383492653E+02
 0.11059048596E+02 0.10976896426E+02 0.11059048596E+02 0.11383492653E+02 0.12241263207E+02
 0.14201262269E+02 0.18135010594E+02 0.25385137082E+02 0.37922130126E+02 0.58501304263E+02
 0.93147588805E+02 0.14465075669E+03 0.20758207617E+03 0.26998641695E+03 0.31971135277E+03
 0.35088800752E+03 0.36558749821E+03 0.37365073756E+03 0.37276892834E+03 0.36558749821E+03
 0.34242105997E+03 0.29709074377E+03 0.23344045012E+03 0.16456423804E+03 0.10542157041E+03
 0.64573888165E+02 0.40879680797E+02 0.27553873291E+02 0.20538941599E+02 0.16921704345E+02
 0.14728127344E+02 0.13063873417E+02 0.11843227429E+02 0.11373670366E+02 0.11843227429E+02
 0.13063873417E+02 0.14728127344E+02 0.16921704345E+02 0.20538941599E+02 0.27553873291E+02
 0.40879680797E+02 0.64573888165E+02 0.10542157041E+03 0.16456423804E+03 0.23344045012E+03
 0.29709074377E+03 0.34242105997E+03 0.36558749821E+03 0.37276892834E+03 0.37325826218E+03
 0.37249266877E+03 0.36554319033E+03 0.34249240865E+03 0.29704547414E+03 0.23315576500E+03
 0.16414023688E+03 0.10508771154E+03 0.64496383410E+02 0.41050363710E+02 0.27841987314E+02
 0.20826488790E+02 0.17165344440E+02 0.14951884518E+02 0.13312932244E+02 0.12136732852E+02
 0.11688586911E+02 0.12136732852E+02 0.13312932244E+02 0.14951884518E+02 0.17165344440E+02
 0.20826488790E+02 0.27841987314E+02 0.41050363710E+02 0.64496383410E+02 0.10508771154E+03
 0.16414023688E+03 0.23315576500E+03 0.29704547414E+03 0.34249240865E+03 0.36554319033E+03
 0.37249266877E+03 0.37249266877E+03 0.37062177489E+03 0.36094131456E+03 0.33495967473E+03
 0.28785276961E+03 0.22429894027E+03 0.15728395463E+03 0.10083674687E+03 0.62355852031E+02
 0.39953220110E+02 0.26976461017E+02 0.19869571367E+02 0.16122518196E+02 0.14038906055E+02
 0.12736399937E+02 0.11915741288E+02 0.11618857795E+02 0.11915741288E+02 0.12736399937E+02
 0.14038906055E+02 0.16122518196E+02 0.19869571367E+02 0.26976461017E+02 0.39953220110E+02
 0.62355852031E+02 0.10083674687E+03 0.15728395463E+03 0.22429894027E+03 0.28785276961E+03
 0.33495967473E+03 0.36094131456E+03 0.37062177489E+03 0.36554319033E+03 0.36094131456E+03
 0.34458835002E+03 0.31167846679E+03 0.26113288587E+03 0.19937331854E+03 0.13836603244E+03
 0.89277227273E+02 0.56629562244E+02 0.37111931437E+02 0.24945727666E+02 0.17740794359E+02
 0.13827007293E+02 0.12056019160E+02 0.11551895308E+02 0.11578369182E+02 0.11642842999E+02
 0.11578369182E+02 0.11551895308E+02 0.12056019160E+02 0.13827007293E+02 0.17740794359E+02
 0.24945727666E+02 0.37111931437E+02 0.56629562244E+02 0.89277227273E+02 0.13836603244E+03
 0.19937331854E+03 0.26113288587E+03 0.31167846679E+03 0.34458835002E+03 0.36094131456E+03
 0.34249240865E+03 0.33495967473E+03 0.31167846679E+03 0.27230186798E+03 0.22011279555E+03
 0.16325172621E+03 0.11196367551E+03 0.73585612864E+02 0.49066063419E+02 0.33623039524E+02
 0.23065088110E+02 0.16163258653E+02 0.12236488298E+02 0.10809159075E+02 0.11094688510E+02
 0.11959647614E+02 0.12383456274E+02 0.11959647615E+02 0.11094688510E+02 0.10809159075E+02
 0.12236488298E+02 0.16163258653E+02 0.23065088110E+02 0.33623039524E+02 0.49066063419E+02
 0.73585612865E+02 0.11196367551E+03 0.16325172621E+03 0.22011279555E+03 0.27230186798E+03
 0.31167846679E+03 0.33495967473E+03 0.29704547414E+03 0.28785276961E+03 0.26113288587E+03
 0.22011279555E+03 0.17125298904E+03 0.12333700169E+03 0.84312236785E+02 0.57761286053E+02
 0.41602972611E+02 0.30638537104E+02 0.22532210393E+02 0.16689823802E+02 0.13176099742E+02
 0.12063567273E+02 0.12764817316E+02 0.14040282170E+02 0.14639304016E+02 0.14040282171E+02
 0.12764817316E+02 0.12063567273E+02 0.13176099743E+02 0.16689823802E+02 0.22532210393E+02
 0.30638537104E+02 0.41602972611E+02 0.57761286053E+02 0.84312236785E+02 0.12333700169E+03
 0.17125298904E+03 0.22011279555E+03 0.26113288587E+03 0.28785276961E+03 0.23315576500E+03
 0.22429894027E+03 0.19937331854E+03 0.16325172621E+03 0.12333700169E+03 0.87507240691E+02
 0.61152252339E+02 0.45015819378E+02 0.35460832202E+02 0.28813637851E+02 0.23696236445E+02
 0.19723852065E+02 0.17249233495E+02 0.16593358612E+02 0.17404942149E+02 0.18655540684E+02
 0.19231433399E+02 0.18655540684E+02 0.17404942149E+02 0.16593358612E+02 0.17249233495E+02
 0.19723852065E+02 0.23696236445E+02 0.28813637851E+02 0.35460832202E+02 0.45015819378E+02
 0.61152252339E+02 0.87507240691E+02 0.12333700169E+03 0.16325172621E+03 0.19937331854E+03
 0.22429894027E+03 0.16414023688E+03 0.15728395463E+03 0.13836603244E+03 0.11196367551E+03
 0.84312236785E+02 0.61152252339E+02 0.45468832913E+02 0.36424108864E+02 0.31226713482E+02
 0.28131234560E+02 0.25975694300E+02 0.24429346796E+02 0.23744715347E+02 0.24149550939E+02
 0.25383917976E+02 0.26691620569E+02 0.27246333026E+02 0.26691620569E+02 0.25383917977E+02
 0.24149550939E+02 0.23744715347E+02 0.24429346796E+02 0.25975694300E+02 0.28131234560E+02
 0.31226713482E+02 0.36424108864E+02 0.45468832913E+02 0.61152252339E+02 0.84312236785E+02
 0.11196367551E+03 0.13836603244E+03 0.15728395463E+03 0.10508771154E+03 0.10083674687E+03
 0.89277227273E+02 0.73585612864E+02 0.57761286053E+02 0.45015819378E+02 0.36424108864E+02
 0.31330441146E+02 0.28926050198E+02 0.28207309392E+02 0.28504160342E+02 0.29641520965E+02
 0.31657783181E+02 0.34404638807E+02 0.37336226482E+02 0.39617358123E+02 0.40481524964E+02
 0.39617358123E+02 0.37336226482E+02 0.34404638807E+02 0.31657783181E+02 0.29641520965E+02
 0.28504160342E+02 0.28207309392E+02 0.28926050198E+02 0.31330441146E+02 0.36424108864E+02
 0.45015819378E+02 0.57761286053E+02 0.73585612864E+02 0.89277227273E+02 0.10083674687E+03
 0.64496383410E+02 0.62355852031E+02 0.56629562244E+02 0.49066063419E+02 0.41602972611E+02
 0.35460832202E+02 0.31226713482E+02 0.28926050198E+02 0.28216158027E+02 0.28887193491E+02
 0.31095988930E+02 0.35142498146E+02 0.40984956477E+02 0.48094714952E+02 0.55355522798E+02
 0.60878716203E+02 0.62946736793E+02 0.60878716203E+02 0.55355522798E+02 0.48094714952E+02
 0.40984956477E+02 0.35142498146E+02 0.31095988930E+02 0.28887193491E+02 0.28216158027E+02
 0.28926050198E+02 0.31226713482E+02 0.35460832202E+02 0.41602972611E+02 0.49066063419E+02
 0.56629562244E+02 0.62355852031E+02 0.41050363710E+02 0.39953220110E+02 0.37111931437E+02
 0.33623039524E+02 0.30638537104E+02 0.28813637851E+02 0.28131234560E+02 0.28207309392E+02
 0.28887193491E+02 0.30711872788E+02 0.34829757799E+02 0.42415201801E+02 0.54641360079E+02
 0.70598524701E+02 0.86796481773E+02 0.98841172391E+02 0.10328368037E+03 0.98841172391E+02
 0.86796481773E+02 0.70598524701E+02 0.54641360079E+02 0.42415201801E+02 0.34829757799E+02
 0.30711872788E+02 0.28887193491E+02 0.28207309392E+02 0.28131234560E+02 0.28813637851E+02
 0.30638537104E+02 0.33623039524E+02 0.37111931437E+02 0.39953220110E+02 0.27841987315E+02
 0.26976461017E+02 0.24945727666E+02 0.23065088110E+02 0.22532210393E+02 0.23696236445E+02
 0.25975694300E+02 0.28504160342E+02 0.31095988930E+02 0.34829757799E+02 0.41964225160E+02
 0.56402250424E+02 0.79630541030E+02 0.10838716861E+03 0.13621012024E+03 0.15622155107E+03
 0.16347908652E+03 0.15622155107E+03 0.13621012024E+03 0.10838716861E+03 0.79630541030E+02
 0.56402250424E+02 0.41964225160E+02 0.34829757799E+02 0.31095988930E+02 0.28504160342E+02
 0.25975694300E+02 0.23696236445E+02 0.22532210393E+02 0.23065088110E+02 0.24945727666E+02
 0.26976461017E+02 0.20826488790E+02 0.19869571367E+02 0.17740794359E+02 0.16163258653E+02
 0.16689823802E+02 0.19723852065E+02 0.24429346796E+02 0.29641520965E+02 0.35142498146E+02
 0.42415201801E+02 0.56402250424E+02 0.82100589913E+02 0.11888964533E+03 0.16061198060E+03
 0.19854466517E+03 0.22474215178E+03 0.23405290716E+03 0.22474215178E+03 0.19854466517E+03
 0.16061198060E+03 0.11888964533E+03 0.82100589913E+02 0.56402250424E+02 0.42415201802E+02
 0.35142498146E+02 0.29641520965E+02 0.24429346796E+02 0.19723852065E+02 0.16689823802E+02
 0.16163258653E+02 0.17740794359E+02 0.19869571367E+02 0.17165344440E+02 0.16122518196E+02
 0.13827007293E+02 0.12236488298E+02 0.13176099742E+02 0.17249233495E+02 0.23744715347E+02
 0.31657783181E+02 0.40984956477E+02 0.54641360079E+02 0.79630541030E+02 0.11888964533E+03
 0.16830456165E+03 0.21903727088E+03 0.26178110328E+03 0.28977180779E+03 0.29944744579E+03
 0.28977180779E+03 0.26178110328E+03 0.21903727088E+03 0.16830456165E+03 0.11888964533E+03
 0.79630541030E+02 0.54641360079E+02 0.40984956477E+02 0.31657783181E+02 0.23744715347E+02
 0.17249233495E+02 0.13176099743E+02 0.12236488298E+02 0.13827007293E+02 0.16122518196E+02
 0.14951884518E+02 0.14038906055E+02 0.12056019160E+02 0.10809159075E+02 0.12063567273E+02
 0.16593358612E+02 0.24149550939E+02 0.34404638807E+02 0.48094714952E+02 0.70598524701E+02
 0.10838716861E+03 0.16061198060E+03 0.21903727088E+03 0.27292781262E+03 0.31419329279E+03
 0.33923714765E+03 0.34752681086E+03 0.33923714765E+03 0.31419329279E+03 0.27292781262E+03
 0.21903727088E+03 0.16061198060E+03 0.10838716861E+03 0.70598524701E+02 0.48094714952E+02
 0.34404638807E+02 0.24149550939E+02 0.16593358612E+02 0.12063567273E+02 0.10809159075E+02
 0.12056019160E+02 0.14038906055E+02 0.13312932244E+02 0.12736399937E+02 0.11551895308E+02
 0.11094688510E+02 0.12764817316E+02 0.17404942149E+02 0.25383917977E+02 0.37336226482E+02
 0.55355522798E+02 0.86796481773E+02 0.13621012024E+03 0.19854466517E+03 0.26178110328E+03
 0.31419329279E+03 0.34993114294E+03 0.36933407998E+03 0.37530168465E+03 0.36933407998E+03
 0.34993114294E+03 0.31419329279E+03 0.26178110328E+03 0.19854466517E+03 0.13621012024E+03
 0.86796481773E+02 0.55355522798E+02 0.37336226482E+02 0.25383917976E+02 0.17404942149E+02
 0.12764817316E+02 0.11094688510E+02 0.11551895308E+02 0.12736399937E+02 0.12136732852E+02
 0.11915741288E+02 0.11578369182E+02 0.11959647614E+02 0.14040282170E+02 0.18655540684E+02
 0.26691620569E+02 0.39617358123E+02 0.60878716203E+02 0.98841172391E+02 0.15622155107E+03
 0.22474215178E+03 0.28977180779E+03 0.33923714765E+03 0.36933407998E+03 0.38356612218E+03
 0.38747605749E+03 0.38356612218E+03 0.36933407998E+03 0.33923714765E+03 0.28977180779E+03
 0.22474215178E+03 0.15622155107E+03 0.98841172391E+02 0.60878716203E+02 0.39617358123E+02
 0.26691620569E+02 0.18655540684E+02 0.14040282170E+02 0.11959647614E+02 0.11578369182E+02
 0.11915741288E+02 0.11688586911E+02 0.11618857795E+02 0.11642842999E+02 0.12383456274E+02
 0.14639304016E+02 0.19231433399E+02 0.27246333026E+02 0.40481524964E+02 0.62946736793E+02
 0.10328368037E+03 0.16347908652E+03 0.23405290716E+03 0.29944744579E+03 0.34752681086E+03
 0.37530168465E+03 0.38747605749E+03 0.39057680694E+03 0.38747605749E+03 0.37530168465E+03
 0.34752681086E+03 0.29944744579E+03 0.23405290716E+03 0.16347908652E+03 0.10328368037E+03
 0.62946736793E+02 0.40481524964E+02 0.27246333026E+02 0.19231433399E+02 0.14639304016E+02
 0.12383456274E+02 0.11642842999E+02 0.11618857795E+02 0.12136732852E+02 0.11915741288E+02
 0.11578369182E+02 0.11959647614E+02 0.14040282170E+02 0.18655540684E+02 0.26691620569E+02
 0.39617358123E+02 0.60878716203E+02 0.98841172391E+02 0.15622155107E+03 0.22474215178E+03
 0.28977180779E+03 0.33923714765E+03 0.36933407998E+03 0.38356612218E+03 0.38747605749E+03
 0.38356612218E+03 0.36933407998E+03 0.33923714765E+03 0.28977180779E+03 0.22474215178E+03
 0.15622155107E+03 0.98841172391E+02 0.60878716203E+02 0.39617358123E+02 0.26691620569E+02
 0.18655540684E+02 0.14040282170E+02 0.11959647614E+02 0.11578369182E+02 0.11915741288E+02
 0.13312932244E+02 0.12736399937E+02 0.11551895308E+02 0.11094688510E+02 0.12764817316E+02
 0.17404942149E+02 0.25383917976E+02 0.37336226482E+02 0.55355522798E+02 0.86796481773E+02
 0.13621012024E+03 0.19854466517E+03 0.26178110328E+03 0.31419329279E+03 0.34993114294E+03
 0.36933407998E+03 0.37530168465E+03 0.36933407998E+03 0.34993114294E+03 0.31419329279E+03
 0.26178110328E+03 0.19854466517E+03 0.13621012024E+03 0.86796481773E+02 0.55355522798E+02