   4   4   0   0
  0.1071875E+02  0.3500000E-09  0.3500000E-09  0.3500000E-09  0.5000000E-15
  1.000000000000000E-004
  CAR 
 unknown system                          
     35.48352201    -39.08513991  301     21.18063774      1.00000000
    -39.085  0.0000E+00  0.0000E+00
    -38.837  0.0000E+00  0.0000E+00
    -38.588  0.0000E+00  0.0000E+00
    -38.339  0.0000E+00  0.0000E+00
    -38.091  0.0000E+00  0.0000E+00
    -37.842  0.0000E+00  0.0000E+00
    -37.594  0.0000E+00  0.0000E+00
    -37.345 -0.5362E-28 -0.1333E-28
    -37.097 -0.7779E-20 -0.1934E-20
    -36.848 -0.4845E-13 -0.1204E-13
    -36.600 -0.1318E-07 -0.3276E-08
    -36.351 -0.1480E-03 -0.3679E-04
    -36.102 -0.6009E-01 -0.1497E-01
    -35.854 -0.1716E+00 -0.5763E-01
    -35.605  0.9943E+01  0.2414E+01
    -35.357  0.1454E+02  0.6028E+01
    -35.108 -0.1054E-01  0.6025E+01
    -34.860 -0.1014E+00  0.6000E+01
    -34.611 -0.2296E-03  0.6000E+01
    -34.362 -0.1847E-07  0.6000E+01
    -34.114 -0.1385E-12  0.6000E+01
    -33.865 -0.2233E-07  0.6000E+01
    -33.617 -0.2623E-03  0.6000E+01
    -33.368 -0.1079E+00  0.5973E+01
    -33.120  0.2290E+00  0.6030E+01
    -32.871  0.1318E+02  0.9305E+01
    -32.623  0.3463E+01  0.1017E+02
    -32.374  0.6559E+01  0.1180E+02
    -32.125  0.9368E+00  0.1203E+02
    -31.877 -0.1168E+00  0.1200E+02
    -31.628 -0.6040E-03  0.1200E+02
    -31.380 -0.1006E-06  0.1200E+02
    -31.131 -0.6753E-12  0.1200E+02
    -30.883  0.0000E+00  0.1200E+02
    -30.634  0.0000E+00  0.1200E+02
    -30.385  0.0000E+00  0.1200E+02
    -30.137  0.0000E+00  0.1200E+02
    -29.888  0.0000E+00  0.1200E+02
    -29.640  0.0000E+00  0.1200E+02
    -29.391  0.0000E+00  0.1200E+02
    -29.143  0.0000E+00  0.1200E+02
    -28.894  0.0000E+00  0.1200E+02
    -28.646  0.0000E+00  0.1200E+02
    -28.397  0.0000E+00  0.1200E+02
    -28.148  0.0000E+00  0.1200E+02
    -27.900  0.0000E+00  0.1200E+02
    -27.651  0.0000E+00  0.1200E+02
    -27.403  0.0000E+00  0.1200E+02
    -27.154  0.0000E+00  0.1200E+02
    -26.906  0.0000E+00  0.1200E+02
    -26.657  0.0000E+00  0.1200E+02
    -26.408  0.0000E+00  0.1200E+02
    -26.160  0.0000E+00  0.1200E+02
    -25.911  0.0000E+00  0.1200E+02
    -25.663  0.0000E+00  0.1200E+02
    -25.414  0.0000E+00  0.1200E+02
    -25.166  0.0000E+00  0.1200E+02
    -24.917  0.0000E+00  0.1200E+02
    -24.669  0.0000E+00  0.1200E+02
    -24.420  0.0000E+00  0.1200E+02
    -24.171  0.0000E+00  0.1200E+02
    -23.923  0.0000E+00  0.1200E+02
    -23.674  0.0000E+00  0.1200E+02
    -23.426  0.0000E+00  0.1200E+02
    -23.177  0.0000E+00  0.1200E+02
    -22.929  0.0000E+00  0.1200E+02
    -22.680  0.0000E+00  0.1200E+02
    -22.431  0.0000E+00  0.1200E+02
    -22.183  0.0000E+00  0.1200E+02
    -21.934  0.0000E+00  0.1200E+02
    -21.686  0.0000E+00  0.1200E+02
    -21.437  0.0000E+00  0.1200E+02
    -21.189  0.0000E+00  0.1200E+02
    -20.940  0.0000E+00  0.1200E+02
    -20.692  0.0000E+00  0.1200E+02
    -20.443  0.0000E+00  0.1200E+02
    -20.194  0.0000E+00  0.1200E+02
    -19.946  0.0000E+00  0.1200E+02
    -19.697  0.0000E+00  0.1200E+02
    -19.449  0.0000E+00  0.1200E+02
    -19.200  0.0000E+00  0.1200E+02
    -18.952  0.0000E+00  0.1200E+02
    -18.703  0.0000E+00  0.1200E+02
    -18.454  0.0000E+00  0.1200E+02
    -18.206  0.0000E+00  0.1200E+02
    -17.957  0.0000E+00  0.1200E+02
    -17.709  0.0000E+00  0.1200E+02
    -17.460  0.0000E+00  0.1200E+02
    -17.212  0.0000E+00  0.1200E+02
    -16.963  0.0000E+00  0.1200E+02
    -16.715  0.0000E+00  0.1200E+02
    -16.466  0.0000E+00  0.1200E+02
    -16.217  0.0000E+00  0.1200E+02
    -15.969  0.0000E+00  0.1200E+02
    -15.720  0.0000E+00  0.1200E+02
    -15.472  0.0000E+00  0.1200E+02
    -15.223  0.0000E+00  0.1200E+02
    -14.975  0.0000E+00  0.1200E+02
    -14.726  0.0000E+00  0.1200E+02
    -14.477  0.0000E+00  0.1200E+02
    -14.229  0.0000E+00  0.1200E+02
    -13.980  0.0000E+00  0.1200E+02
    -13.732  0.0000E+00  0.1200E+02
    -13.483  0.0000E+00  0.1200E+02
    -13.235  0.0000E+00  0.1200E+02
    -12.986  0.0000E+00  0.1200E+02
    -12.738  0.0000E+00  0.1200E+02
    -12.489  0.0000E+00  0.1200E+02
    -12.240  0.0000E+00  0.1200E+02
    -11.992  0.0000E+00  0.1200E+02
    -11.743  0.0000E+00  0.1200E+02
    -11.495  0.0000E+00  0.1200E+02
    -11.246  0.0000E+00  0.1200E+02
    -10.998  0.0000E+00  0.1200E+02
    -10.749  0.0000E+00  0.1200E+02
    -10.500  0.0000E+00  0.1200E+02
    -10.252  0.0000E+00  0.1200E+02
    -10.003  0.0000E+00  0.1200E+02
     -9.755  0.0000E+00  0.1200E+02
     -9.506  0.0000E+00  0.1200E+02
     -9.258  0.0000E+00  0.1200E+02
     -9.009  0.0000E+00  0.1200E+02
     -8.761  0.0000E+00  0.1200E+02
     -8.512  0.0000E+00  0.1200E+02
     -8.263  0.0000E+00  0.1200E+02
     -8.015  0.0000E+00  0.1200E+02
     -7.766  0.0000E+00  0.1200E+02
     -7.518  0.0000E+00  0.1200E+02
     -7.269  0.0000E+00  0.1200E+02
     -7.021  0.0000E+00  0.1200E+02
     -6.772  0.0000E+00  0.1200E+02
     -6.523  0.0000E+00  0.1200E+02
     -6.275  0.0000E+00  0.1200E+02
     -6.026  0.0000E+00  0.1200E+02
     -5.778  0.0000E+00  0.1200E+02
     -5.529  0.0000E+00  0.1200E+02
     -5.281  0.0000E+00  0.1200E+02
     -5.032  0.0000E+00  0.1200E+02
     -4.784  0.0000E+00  0.1200E+02
     -4.535  0.0000E+00  0.1200E+02
     -4.286  0.0000E+00  0.1200E+02
     -4.038  0.0000E+00  0.1200E+02
     -3.789  0.0000E+00  0.1200E+02
     -3.541  0.0000E+00  0.1200E+02
     -3.292  0.0000E+00  0.1200E+02
     -3.044  0.0000E+00  0.1200E+02
     -2.795  0.0000E+00  0.1200E+02
     -2.546  0.0000E+00  0.1200E+02
     -2.298  0.0000E+00  0.1200E+02
     -2.049  0.0000E+00  0.1200E+02
     -1.801  0.0000E+00  0.1200E+02
     -1.552  0.0000E+00  0.1200E+02
     -1.304  0.0000E+00  0.1200E+02
     -1.055  0.0000E+00  0.1200E+02
     -0.807  0.0000E+00  0.1200E+02
     -0.558  0.0000E+00  0.1200E+02
     -0.309  0.0000E+00  0.1200E+02
     -0.061  0.0000E+00  0.1200E+02
      0.188  0.0000E+00  0.1200E+02
      0.436  0.0000E+00  0.1200E+02
      0.685  0.0000E+00  0.1200E+02
      0.933  0.0000E+00  0.1200E+02
      1.182  0.0000E+00  0.1200E+02
      1.430  0.0000E+00  0.1200E+02
      1.679  0.0000E+00  0.1200E+02
      1.928  0.0000E+00  0.1200E+02
      2.176  0.0000E+00  0.1200E+02
      2.425  0.0000E+00  0.1200E+02
      2.673  0.0000E+00  0.1200E+02
      2.922  0.0000E+00  0.1200E+02
      3.170  0.0000E+00  0.1200E+02
      3.419 -0.2740E-29  0.1200E+02
      3.668 -0.6238E-21  0.1200E+02
      3.916 -0.6272E-14  0.1200E+02
      4.165 -0.2625E-08  0.1200E+02
      4.413 -0.4683E-04  0.1200E+02
      4.662 -0.3038E-01  0.1199E+02
      4.910 -0.1449E+00  0.1196E+02
      5.159  0.5979E+01  0.1344E+02
      5.407  0.2460E+01  0.1405E+02
      5.656 -0.2143E+00  0.1400E+02
      5.905 -0.2726E-02  0.1400E+02
      6.153 -0.9542E-06  0.1400E+02
      6.402 -0.1322E-10  0.1400E+02
      6.650 -0.1763E-07  0.1400E+02
      6.899 -0.1809E-03  0.1400E+02
      7.147 -0.6406E-01  0.1398E+02
      7.396  0.2336E+00  0.1404E+02
      7.645  0.6513E+01  0.1566E+02
      7.893  0.4397E+01  0.1675E+02
      8.142  0.5052E+01  0.1801E+02
      8.390  0.9896E+00  0.1826E+02
      8.639  0.1785E+02  0.2269E+02
      8.887  0.1412E+02  0.2620E+02
      9.136 -0.7615E+00  0.2601E+02
      9.384 -0.4558E-01  0.2600E+02
      9.633 -0.4883E-04  0.2600E+02
      9.882 -0.2019E-08  0.2600E+02
     10.130 -0.3573E-14  0.2600E+02
     10.379  0.0000E+00  0.2600E+02
     10.627  0.0000E+00  0.2600E+02
     10.876  0.0000E+00  0.2600E+02
     11.124  0.0000E+00  0.2600E+02
     11.373  0.0000E+00  0.2600E+02
     11.622 -0.6534E-31  0.2600E+02
     11.870 -0.2583E-22  0.2600E+02
     12.119 -0.4519E-15  0.2600E+02
     12.367 -0.3314E-09  0.2600E+02
     12.616 -0.1045E-04  0.2600E+02
     12.864 -0.1248E-01  0.2600E+02
     13.113 -0.2994E+00  0.2592E+02
     13.361  0.4128E+01  0.2695E+02
     13.610  0.1364E+02  0.3034E+02
     13.859  0.7246E+01  0.3214E+02
     14.107 -0.5440E+00  0.3200E+02
     14.356 -0.1386E-01  0.3200E+02
     14.604 -0.8133E-05  0.3200E+02
     14.853 -0.1839E-09  0.3200E+02
     15.101  0.0000E+00  0.3200E+02
     15.350 -0.4133E-33  0.3200E+02
     15.599 -0.3668E-24  0.3200E+02
     15.847 -0.1451E-16  0.3200E+02
     16.096 -0.2438E-10  0.3200E+02
     16.344 -0.1788E-05  0.3200E+02
     16.593 -0.5193E-02  0.3200E+02
     16.841 -0.4203E+00  0.3189E+02
     17.090  0.4778E+01  0.3308E+02
     17.338  0.1206E+02  0.3608E+02
     17.587 -0.2587E+00  0.3602E+02
     17.836 -0.6375E-01  0.3600E+02
     18.084 -0.1027E-03  0.3600E+02
     18.333 -0.6032E-08  0.3600E+02
     18.581 -0.1608E-13  0.3600E+02
     18.830 -0.6495E-18  0.3600E+02
     19.078 -0.1764E-11  0.3600E+02
     19.327 -0.2091E-06  0.3600E+02
     19.576 -0.9929E-03  0.3600E+02
     19.824 -0.1459E+00  0.3596E+02
     20.073  0.1315E+01  0.3629E+02
     20.321  0.5748E+01  0.3772E+02
     20.570  0.1609E+02  0.4172E+02
     20.818  0.1742E+02  0.4605E+02
     21.067  0.7149E+01  0.4783E+02
     21.315  0.3182E+02  0.5573E+02
     21.564  0.1097E+01  0.5601E+02
     21.813  0.2418E+01  0.5661E+02
     22.061  0.1341E+02  0.5994E+02
     22.310  0.3575E+00  0.6003E+02
     22.558 -0.1185E+00  0.6000E+02
     22.807 -0.3123E-03  0.6000E+02
     23.055 -0.2860E-07  0.6000E+02
     23.304 -0.1072E-12  0.6000E+02
     23.553  0.0000E+00  0.6000E+02
     23.801  0.0000E+00  0.6000E+02
     24.050  0.0000E+00  0.6000E+02
     24.298  0.0000E+00  0.6000E+02
     24.547  0.0000E+00  0.6000E+02
     24.795  0.0000E+00  0.6000E+02
     25.044  0.0000E+00  0.6000E+02
     25.292  0.0000E+00  0.6000E+02
     25.541  0.0000E+00  0.6000E+02
     25.790  0.0000E+00  0.6000E+02
     26.038  0.0000E+00  0.6000E+02
     26.287  0.0000E+00  0.6000E+02
     26.535  0.0000E+00  0.6000E+02
     26.784  0.0000E+00  0.6000E+02
     27.032  0.0000E+00  0.6000E+02
     27.281  0.0000E+00  0.6000E+02
     27.530  0.0000E+00  0.6000E+02
     27.778  0.0000E+00  0.6000E+02
     28.027  0.0000E+00  0.6000E+02
     28.275  0.0000E+00  0.6000E+02
     28.524  0.0000E+00  0.6000E+02
     28.772  0.0000E+00  0.6000E+02
     29.021  0.0000E+00  0.6000E+02
     29.269  0.0000E+00  0.6000E+02
     29.518  0.0000E+00  0.6000E+02
     29.767  0.0000E+00  0.6000E+02
     30.015  0.0000E+00  0.6000E+02
     30.264 -0.1807E-34  0.6000E+02
     30.512 -0.2513E-25  0.6000E+02
     30.761 -0.1553E-17  0.6000E+02
     31.009 -0.4076E-11  0.6000E+02
     31.258 -0.4665E-06  0.6000E+02
     31.507 -0.2138E-02  0.6000E+02
     31.755 -0.3010E+00  0.5992E+02
     32.004  0.2850E+01  0.6063E+02
     32.252  0.1335E+02  0.6395E+02
     32.501  0.3070E+00  0.6403E+02
     32.749 -0.1144E+00  0.6400E+02
     32.998 -0.2921E-03  0.6400E+02
     33.246 -0.2602E-07  0.6400E+02
     33.495 -0.9469E-13  0.6400E+02
     33.744  0.0000E+00  0.6400E+02
     33.992  0.0000E+00  0.6400E+02
     34.241  0.0000E+00  0.6400E+02
     34.489  0.0000E+00  0.6400E+02
     34.738  0.0000E+00  0.6400E+02
     34.986  0.0000E+00  0.6400E+02
     35.235  0.0000E+00  0.6400E+02
     35.484  0.0000E+00  0.6400E+02
