    4    4    1    1
  0.1071875E+02  0.3500000E-09  0.3500000E-09  0.3500000E-09  0.5000000E-15
  1.000000000000000E-004
  CAR 
 unknown system                          
     52      1     32
 
  0.0000000E+00  0.0000000E+00  0.0000000E+00  0.1000000E+01
    1      -35.695655   1.000000
    2      -35.522928   1.000000
    3      -35.522928   1.000000
    4      -32.957719   1.000000
    5      -32.957719   1.000000
    6      -32.484587   1.000000
    7        5.104472   1.000000
    8        7.547513   1.000000
    9        7.926774   1.000000
   10        8.460803   1.000000
   11        8.611677   1.000000
   12        8.672088   1.000000
   13        8.672088   1.000000
   14       13.351089   1.000000
   15       13.594149   1.000000
   16       13.594149   1.000000
   17       17.140919   1.000000
   18       17.152450   1.000000
   19       20.165467   1.000000
   20       20.530534   1.000021
   21       20.564406   1.000059
   22       20.609947   1.000207
   23       20.609947   1.000207
   24       21.099301   0.814636
   25       21.138898   0.672422
   26       21.138898   0.672422
   27       21.191759   0.453023
   28       21.207612   0.387006
   29       21.904857  -0.000002
   30       21.904857  -0.000002
   31       32.093468   0.000000
   32       32.094037   0.000000
