       N       E                     dE             d eps       ncg     rms          rms(c)
DAV:   1    -0.208346222023E+04   -0.20835E+04   -0.28977E+04   112   0.879E+02    0.111E+03
DAV:   2    -0.422984384325E+02    0.20412E+04   -0.48451E+03    96   0.454E+02    0.420E+02
DAV:   3     0.231430078867E+02    0.65441E+02   -0.79388E+02    80   0.166E+02    0.473E+02
DAV:   4    -0.518171161646E+02   -0.74960E+02   -0.78354E+02    80   0.171E+02    0.158E+02
DAV:   5     0.111541369286E+02    0.62971E+02   -0.89306E+01    64   0.748E+01    0.427E+01
DAV:   6     0.228211009917E+02    0.11667E+02   -0.47630E+01    96   0.385E+01    0.586E+01
DAV:   7     0.215341636982E+02   -0.12869E+01   -0.53958E+01    64   0.232E+01    0.555E+01
DAV:   8     0.240312888509E+02    0.24971E+01   -0.89799E-01    96   0.817E+00    0.371E+01
DAV:   9     0.236473207343E+02   -0.38397E+00   -0.15180E+01    64   0.752E+00    0.494E+01
DAV:  10     0.239567191065E+02    0.30940E+00   -0.21165E+00    96   0.320E+00    0.460E+01
DAV:  11     0.240119467026E+02    0.55228E-01   -0.81633E-01    80   0.127E+00    0.466E+01
DAV:  12     0.242479209218E+02    0.23597E+00   -0.31530E-01    64   0.156E+00    0.421E+01
DAV:  13     0.233057428613E+02   -0.94218E+00   -0.55343E+00    64   0.842E+00    0.305E+01
DAV:  14     0.240081251987E+02    0.70238E+00   -0.68936E+00    64   0.650E+00    0.381E+01
DAV:  15     0.241310985725E+02    0.12297E+00   -0.66042E-01    96   0.187E+00    0.307E+01
DAV:  16     0.237133335938E+02   -0.41776E+00   -0.43945E+00    64   0.373E+00    0.399E+01
DAV:  17     0.235044522687E+02   -0.20888E+00   -0.71178E-02    64   0.225E+00    0.413E+01
DAV:  18     0.212280249069E+02   -0.22764E+01   -0.10761E+00    64   0.881E+00    0.439E+01
DAV:  19     0.198658517920E+02   -0.13622E+01   -0.21518E-01    96   0.411E+00    0.440E+01
DAV:  20     0.198327745535E+02   -0.33077E-01   -0.58833E-03    96   0.505E-01    0.439E+01
DAV:  21     0.196143031654E+02   -0.21847E+00   -0.89996E-03    96   0.746E-01    0.438E+01
DAV:  22     0.194025767698E+02   -0.21173E+00   -0.10424E-02    96   0.583E-01    0.434E+01
DAV:  23     0.195905617441E+02    0.18798E+00   -0.40688E-02    64   0.104E+00    0.455E+01
DAV:  24     0.192488764522E+02   -0.34169E+00   -0.15539E-01    96   0.194E+00    0.488E+01
DAV:  25     0.192477068716E+02   -0.11696E-02   -0.20291E-03    64   0.302E-01    0.489E+01
DAV:  26     0.195635118576E+02    0.31580E+00   -0.48203E-02    96   0.183E+00    0.484E+01
DAV:  27     0.194165329009E+02   -0.14698E+00   -0.16504E-02    64   0.157E+00    0.481E+01
DAV:  28     0.192932062362E+02   -0.12333E+00   -0.68557E-03    80   0.675E-01    0.481E+01
DAV:  29     0.192333028890E+02   -0.59903E-01   -0.96683E-04    96   0.229E-01    0.483E+01
DAV:  30     0.192183154093E+02   -0.14987E-01   -0.39841E-02    64   0.161E+00    0.486E+01
DAV:  31     0.182927776250E+02   -0.92554E+00   -0.18563E+00    64   0.665E+00    0.470E+01
DAV:  32     0.187568723932E+02    0.46409E+00   -0.68509E-01    64   0.232E+00    0.480E+01
DAV:  33     0.182707896035E+02   -0.48608E+00   -0.91894E-01    80   0.354E+00    0.464E+01
DAV:  34     0.188284423350E+02    0.55765E+00   -0.73272E-01    80   0.225E+00    0.468E+01
DAV:  35     0.189534618525E+02    0.12502E+00   -0.47452E-01    96   0.165E+00    0.434E+01
DAV:  36     0.195340690027E+02    0.58061E+00   -0.10590E+00    64   0.251E+00    0.462E+01
DAV:  37     0.193974483197E+02   -0.13662E+00   -0.77292E-01    96   0.240E+00    0.412E+01
DAV:  38     0.198124127383E+02    0.41496E+00   -0.50905E-01    64   0.171E+00    0.434E+01
DAV:  39     0.198855153280E+02    0.73103E-01   -0.44203E-01    96   0.224E+00    0.392E+01
DAV:  40     0.202703560177E+02    0.38484E+00   -0.55718E-02    64   0.191E+00    0.399E+01
DAV:  41     0.205085570788E+02    0.23820E+00   -0.72754E-01    96   0.229E+00    0.369E+01
DAV:  42     0.205333911465E+02    0.24834E-01   -0.93005E-01    80   0.142E+00    0.386E+01
DAV:  43     0.204316126919E+02   -0.10178E+00   -0.16502E+00    96   0.178E+00    0.365E+01
DAV:  44     0.206598522813E+02    0.22824E+00   -0.15958E+00    80   0.176E+00    0.387E+01
DAV:  45     0.206261200055E+02   -0.33732E-01   -0.10149E+00    96   0.115E+00    0.350E+01
DAV:  46     0.208147303972E+02    0.18861E+00   -0.10258E+00    96   0.136E+00    0.382E+01
DAV:  47     0.209154239766E+02    0.10069E+00   -0.73034E-02    96   0.114E+00    0.351E+01
DAV:  48     0.212187045219E+02    0.30328E+00   -0.11900E-01    80   0.158E+00    0.393E+01
DAV:  49     0.212006774621E+02   -0.18027E-01   -0.37317E-03    96   0.562E-01    0.362E+01
DAV:  50     0.213167426619E+02    0.11607E+00   -0.71191E-03    80   0.790E-01    0.393E+01
DAV:  51     0.213225201159E+02    0.57775E-02   -0.14910E-03    64   0.338E-01    0.374E+01
DAV:  52     0.206105977369E+02   -0.71192E+00   -0.42817E+01    80   0.243E+01    0.631E+01
DAV:  53     0.222710684839E+02    0.16605E+01   -0.12769E+01    64   0.136E+01    0.528E+01
DAV:  54     0.226946404248E+02    0.42357E+00   -0.42775E+00    96   0.544E+00    0.606E+01
DAV:  55     0.231109051849E+02    0.41626E+00   -0.21488E+00    64   0.259E+00    0.536E+01
DAV:  56     0.226684659352E+02   -0.44244E+00   -0.37592E+00    80   0.316E+00    0.601E+01
DAV:  57     0.211214223460E+02   -0.15470E+01   -0.53393E+01    64   0.218E+01    0.358E+01
DAV:  58     0.213174326517E+02    0.19601E+00   -0.47084E-01    96   0.424E+00    0.395E+01
DAV:  59     0.217439866194E+02    0.42655E+00   -0.26159E-02    80   0.153E+00    0.376E+01
DAV:  60     0.216983667973E+02   -0.45620E-01   -0.14780E-02    96   0.948E-01
   1 F= 0.21698367E+02 E0= 0.21778130E+02  d E =-.239289E+00
