 vasp.6.1.2 22Jul20 (build Jul 11 2022 11:43:44) complex                        
  
 executed on             LinuxIFC date 2022.08.17  15:33:38
 running on   16 total cores
 distrk:  each k-point on   16 cores,    1 groups
 distr:  one band on NCORE=   1 cores,   16 groups


--------------------------------------------------------------------------------------------------------


 INCAR:
 POTCAR:    PAW_PBE Pt_pv 12Dec2005               
 POTCAR:    PAW_PBE Pt_pv 12Dec2005               
 POTCAR:    PAW_PBE Pt 04Feb2005                  
 -----------------------------------------------------------------------------
|                                                                             |
|           W    W    AA    RRRRR   N    N  II  N    N   GGGG   !!!           |
|           W    W   A  A   R    R  NN   N  II  NN   N  G    G  !!!           |
|           W    W  A    A  R    R  N N  N  II  N N  N  G       !!!           |
|           W WW W  AAAAAA  RRRRR   N  N N  II  N  N N  G  GGG   !            |
|           WW  WW  A    A  R   R   N   NN  II  N   NN  G    G                |
|           W    W  A    A  R    R  N    N  II  N    N   GGGG   !!!           |
|                                                                             |
|     For optimal performance we recommend to set                             |
|       NCORE = 4 - approx SQRT(number of cores).                             |
|     NCORE specifies how many cores store one orbital (NPAR=cpu/NCORE).      |
|     This setting can greatly improve the performance of VASP for DFT.       |
|     The default, NCORE=1 might be grossly inefficient on modern             |
|     multi-core architectures or massively parallel machines. Do your        |
|     own testing!!!!                                                         |
|     Unfortunately you need to use the default for GW and RPA                |
|     calculations (for HF NCORE is supported but not extensively tested      |
|     yet).                                                                   |
|                                                                             |
 -----------------------------------------------------------------------------

 POTCAR:    PAW_PBE Pt_pv 12Dec2005               
   VRHFIN =Pt: 5ps1d9                                                                               
   LEXCH  = PE                                                                                      
   EATOM  =  2428.2504 eV,  178.4714 Ry                                                             
                                                                                                    
   TITEL  = PAW_PBE Pt_pv 12Dec2005                                                                 
   LULTRA =        F    use ultrasoft PP ?                                                          
   IUNSCR =        1    unscreen: 0-lin 1-nonlin 2-no                                               
   RPACOR =    2.000    partial core radius                                                         
   POMASS =  195.080; ZVAL   =   16.000    mass and valenz                                          
   RCORE  =    2.200    outmost cutoff radius                                                       
   RWIGS  =    2.200; RWIGS  =    1.164    wigner-seitz radius (au A)                               
   ENMAX  =  294.607; ENMIN  =  220.955 eV                                                          
   ICORE  =        3    local potential                                                             
   LCOR   =        T    correct aug charges                                                         
   LPAW   =        T    paw PP                                                                      
   EAUG   =  527.014                                                                                
   DEXC   =    0.000                                                                                
   RMAX   =    2.247    core radius for proj-oper                                                   
   RAUG   =    1.300    factor for augmentation sphere                                              
   RDEP   =    2.279    radius for radial grids                                                     
   RDEPT  =    1.878    core radius for aug-charge                                                  
                                                                                                    
   Atomic configuration                                                                             
   16 entries                                                                                       
     n  l   j            E        occ.                                                              
     1  0  0.50    -78401.1885   2.0000                                                             
     2  0  0.50    -13770.7750   2.0000                                                             
     2  1  1.50    -11931.0468   6.0000                                                             
     3  0  0.50     -3234.7234   2.0000                                                             
     3  1  1.50     -2699.2216   6.0000                                                             
     3  2  2.50     -2119.5714  10.0000                                                             
     4  0  0.50      -695.1528   2.0000                                                             
     4  1  1.50      -519.6034   6.0000                                                             
     4  2  2.50      -306.6786  10.0000                                                             
     4  3  3.50       -70.1041  14.0000                                                             
     5  0  0.50      -101.7747   2.0000                                                             
     5  1  1.50       -55.9873   6.0000                                                             
     6  1  1.50        -6.8029   0.0000                                                             
     5  2  2.50        -6.1423   9.0000                                                             
     6  0  0.50        -5.6573   1.0000                                                             
     5  3  2.50        -1.3606   0.0000                                                             
   Description                                                                                      
     l       E           TYP  RCUT    TYP  RCUT                                                     
     1    -55.9873477     23  2.000                                                                 
     1     27.2116520     23  2.000                                                                 
     2     -6.1423404     23  2.200                                                                 
     2     -4.6754623     23  2.200                                                                 
     0     -5.6573207     23  2.200                                                                 
     0     47.6203910     23  2.200                                                                 
     3      6.8029130     23  2.200                                                                 
  local pseudopotential read in
  partial core-charges read in
  partial kinetic energy density read in
  atomic valenz-charges read in
  non local Contribution for L=           1  read in
    real space projection operators read in
  non local Contribution for L=           1  read in
    real space projection operators read in
  non local Contribution for L=           2  read in
    real space projection operators read in
  non local Contribution for L=           2  read in
    real space projection operators read in
  non local Contribution for L=           0  read in
    real space projection operators read in
  non local Contribution for L=           0  read in
    real space projection operators read in
    PAW grid and wavefunctions read in
 
   number of l-projection  operators is LMAX  =           6
   number of lm-projection operators is LMMAX =          18
 
 POTCAR:    PAW_PBE Pt_pv 12Dec2005               
   VRHFIN =Pt: 5ps1d9                                                                               
   LEXCH  = PE                                                                                      
   EATOM  =  2428.2504 eV,  178.4714 Ry                                                             
                                                                                                    
   TITEL  = PAW_PBE Pt_pv 12Dec2005                                                                 
   LULTRA =        F    use ultrasoft PP ?                                                          
   IUNSCR =        1    unscreen: 0-lin 1-nonlin 2-no                                               
   RPACOR =    2.000    partial core radius                                                         
   POMASS =  195.080; ZVAL   =   16.000    mass and valenz                                          
   RCORE  =    2.200    outmost cutoff radius                                                       
   RWIGS  =    2.200; RWIGS  =    1.164    wigner-seitz radius (au A)                               
   ENMAX  =  294.607; ENMIN  =  220.955 eV                                                          
   ICORE  =        3    local potential                                                             
   LCOR   =        T    correct aug charges                                                         
   LPAW   =        T    paw PP                                                                      
   EAUG   =  527.014                                                                                
   DEXC   =    0.000                                                                                
   RMAX   =    2.247    core radius for proj-oper                                                   
   RAUG   =    1.300    factor for augmentation sphere                                              
   RDEP   =    2.279    radius for radial grids                                                     
   RDEPT  =    1.878    core radius for aug-charge                                                  
                                                                                                    
   Atomic configuration                                                                             
   16 entries                                                                                       
     n  l   j            E        occ.                                                              
     1  0  0.50    -78401.1885   2.0000                                                             
     2  0  0.50    -13770.7750   2.0000                                                             
     2  1  1.50    -11931.0468   6.0000                                                             
     3  0  0.50     -3234.7234   2.0000                                                             
     3  1  1.50     -2699.2216   6.0000                                                             
     3  2  2.50     -2119.5714  10.0000                                                             
     4  0  0.50      -695.1528   2.0000                                                             
     4  1  1.50      -519.6034   6.0000                                                             
     4  2  2.50      -306.6786  10.0000                                                             
     4  3  3.50       -70.1041  14.0000                                                             
     5  0  0.50      -101.7747   2.0000                                                             
     5  1  1.50       -55.9873   6.0000                                                             
     6  1  1.50        -6.8029   0.0000                                                             
     5  2  2.50        -6.1423   9.0000                                                             
     6  0  0.50        -5.6573   1.0000                                                             
     5  3  2.50        -1.3606   0.0000                                                             
   Description                                                                                      
     l       E           TYP  RCUT    TYP  RCUT                                                     
     1    -55.9873477     23  2.000                                                                 
     1     27.2116520     23  2.000                                                                 
     2     -6.1423404     23  2.200                                                                 
     2     -4.6754623     23  2.200                                                                 
     0     -5.6573207     23  2.200                                                                 
     0     47.6203910     23  2.200                                                                 
     3      6.8029130     23  2.200                                                                 
  local pseudopotential read in
  partial core-charges read in
  partial kinetic energy density read in
  atomic valenz-charges read in
  non local Contribution for L=           1  read in
    real space projection operators read in
  non local Contribution for L=           1  read in
    real space projection operators read in
  non local Contribution for L=           2  read in
    real space projection operators read in
  non local Contribution for L=           2  read in
    real space projection operators read in
  non local Contribution for L=           0  read in
    real space projection operators read in
  non local Contribution for L=           0  read in
    real space projection operators read in
    PAW grid and wavefunctions read in
 
   number of l-projection  operators is LMAX  =           6
   number of lm-projection operators is LMMAX =          18
 
 POTCAR:    PAW_PBE Pt 04Feb2005                  
   VRHFIN =Pt: s1d9                                                                                 
   LEXCH  = PE                                                                                      
   EATOM  =   729.1176 eV,   53.5886 Ry                                                             
                                                                                                    
   TITEL  = PAW_PBE Pt 04Feb2005                                                                    
   LULTRA =        F    use ultrasoft PP ?                                                          
   IUNSCR =        1    unscreen: 0-lin 1-nonlin 2-no                                               
   RPACOR =    2.330    partial core radius                                                         
   POMASS =  195.080; ZVAL   =   10.000    mass and valenz                                          
   RCORE  =    2.600    outmost cutoff radius                                                       
   RWIGS  =    2.750; RWIGS  =    1.455    wigner-seitz radius (au A)                               
   ENMAX  =  230.283; ENMIN  =  172.712 eV                                                          
   ICORE  =        3    local potential                                                             
   LCOR   =        T    correct aug charges                                                         
   LPAW   =        T    paw PP                                                                      
   EAUG   =  358.966                                                                                
   DEXC   =    0.000                                                                                
   RMAX   =    2.658    core radius for proj-oper                                                   
   RAUG   =    1.300    factor for augmentation sphere                                              
   RDEP   =    2.761    radius for radial grids                                                     
   RDEPT  =    2.203    core radius for aug-charge                                                  
                                                                                                    
   Atomic configuration                                                                             
   16 entries                                                                                       
     n  l   j            E        occ.                                                              
     1  0  0.50    -78401.1885   2.0000                                                             
     2  0  0.50    -13770.7750   2.0000                                                             
     2  1  1.50    -11931.0468   6.0000                                                             
     3  0  0.50     -3234.7234   2.0000                                                             
     3  1  1.50     -2699.2216   6.0000                                                             
     3  2  2.50     -2119.5714  10.0000                                                             
     4  0  0.50      -695.1528   2.0000                                                             
     4  1  1.50      -519.6034   6.0000                                                             
     4  2  2.50      -306.6786  10.0000                                                             
     4  3  3.50       -70.1041  14.0000                                                             
     5  0  0.50      -101.7747   2.0000                                                             
     5  1  1.50       -55.9873   6.0000                                                             
     5  2  2.50        -6.1423   9.0000                                                             
     6  0  0.50        -5.6573   1.0000                                                             
     6  1  1.50        -6.8029   0.0000                                                             
     5  3  2.50        -1.3606   0.0000                                                             
   Description                                                                                      
     l       E           TYP  RCUT    TYP  RCUT                                                     
     2     -6.1423404     23  2.500                                                                 
     2     -7.5029230     23  2.500                                                                 
     0     -5.6573207     23  2.500                                                                 
     0      0.7416693     23  2.500                                                                 
     1     -2.7211652     23  2.600                                                                 
     1     20.4087390     23  2.600                                                                 
     3     -1.3605826     23  2.500                                                                 
  local pseudopotential read in
  partial core-charges read in
  partial kinetic energy density read in
  atomic valenz-charges read in
  non local Contribution for L=           2  read in
    real space projection operators read in
  non local Contribution for L=           2  read in
    real space projection operators read in
  non local Contribution for L=           0  read in
    real space projection operators read in
  non local Contribution for L=           0  read in
    real space projection operators read in
  non local Contribution for L=           1  read in
    real space projection operators read in
  non local Contribution for L=           1  read in
    real space projection operators read in
    PAW grid and wavefunctions read in
 
   number of l-projection  operators is LMAX  =           6
   number of lm-projection operators is LMMAX =          18
 
  PAW_PBE Pt_pv 12Dec2005               :
 energy of atom  1       EATOM=-2428.2504
 kinetic energy error for atom=    0.1590 (will be added to EATOM!!)
  PAW_PBE Pt_pv 12Dec2005               :
 energy of atom  2       EATOM=-2428.2504
 kinetic energy error for atom=    0.1590 (will be added to EATOM!!)
  PAW_PBE Pt 04Feb2005                  :
 energy of atom  3       EATOM= -729.1176
 kinetic energy error for atom=    0.0441 (will be added to EATOM!!)
 
 
 POSCAR: Pt Pt Pt
  positions in cartesian coordinates
  No initial velocities read in
 exchange correlation table for  LEXCH =        8
   RHO(1)=    0.500       N(1)  =     2000
   RHO(2)=  100.500       N(2)  =     4000
 


--------------------------------------------------------------------------------------------------------


 ion  position               nearest neighbor table
   1  0.000  0.000  0.000-   2 2.47   3 2.47   4 2.47   3 2.47   4 2.47   2 2.47   3 2.47   3 2.47
                             2 2.47   4 2.47   4 2.47   2 2.47
   2  0.500  0.500  0.000-   1 2.47   3 2.47   4 2.47   3 2.47   4 2.47   1 2.47   4 2.47   4 2.47
                             1 2.47   3 2.47   3 2.47   1 2.47
   3  0.000  0.500  0.500-   1 2.47   2 2.47   4 2.47   1 2.47   2 2.47   1 2.47   4 2.47   1 2.47
                             2 2.47   4 2.47   2 2.47   4 2.47
   4  0.500  0.000  0.500-   1 2.47   2 2.47   3 2.47   1 2.47   2 2.47   2 2.47   3 2.47   2 2.47
                             1 2.47   3 2.47   1 2.47   3 2.47
 
  LATTYP: Found a simple cubic cell.
 ALAT       =     3.5000000000
  
  Lattice vectors:
  
 A1 = (   3.5000000000,   0.0000000000,   0.0000000000)
 A2 = (   0.0000000000,   3.5000000000,   0.0000000000)
 A3 = (   0.0000000000,   0.0000000000,   3.5000000000)


Analysis of symmetry for initial positions (statically):
=====================================================================
 Subroutine PRICEL returns:
 Original cell was already a primitive cell.
 

 Routine SETGRP: Setting up the symmetry group for a 
 simple cubic supercell.


 Subroutine GETGRP returns: Found 16 space group operations
 (whereof 16 operations were pure point group operations)
 out of a pool of 48 trial point group operations.


The static configuration has the point symmetry D_4h.


Analysis of symmetry for dynamics (positions and initial velocities):
=====================================================================
 Subroutine PRICEL returns:
 Original cell was already a primitive cell.
 

 Routine SETGRP: Setting up the symmetry group for a 
 simple cubic supercell.


 Subroutine GETGRP returns: Found 16 space group operations
 (whereof 16 operations were pure point group operations)
 out of a pool of 48 trial point group operations.


The dynamic configuration has the point symmetry D_4h.


 Subroutine INISYM returns: Found 16 space group operations
 (whereof 16 operations are pure point group operations),
 and found     1 'primitive' translations


----------------------------------------------------------------------------------------

                                     Primitive cell                                     

  volume of cell :      42.8750

  direct lattice vectors                    reciprocal lattice vectors
     3.500000000  0.000000000  0.000000000     0.285714286  0.000000000  0.000000000
     0.000000000  3.500000000  0.000000000     0.000000000  0.285714286  0.000000000
     0.000000000  0.000000000  3.500000000     0.000000000  0.000000000  0.285714286

  length of vectors
     3.500000000  3.500000000  3.500000000     0.285714286  0.285714286  0.285714286

  position of ions in fractional coordinates (direct lattice)
     0.000000000  0.000000000  0.000000000
     0.500000000  0.500000000  0.000000000
     0.000000000  0.500000000  0.500000000
     0.500000000  0.000000000  0.500000000

  ion indices of the primitive-cell ions
   primitive index   ion index
                 1           1
                 2           2
                 3           3
                 4           4

----------------------------------------------------------------------------------------

 
 
 KPOINTS: KPOINTS created by Atomic Simulation Env

Automatic generation of k-mesh.
Space group operators:
 irot       det(A)        alpha          n_x          n_y          n_z        tau_x        tau_y        tau_z
    1     1.000000     0.000000     1.000000     0.000000     0.000000     0.000000     0.000000     0.000000
    2    -1.000000     0.000000     1.000000     0.000000     0.000000     0.000000     0.000000     0.000000
    3     1.000000    90.000000     0.000000     0.000000    -1.000000     0.000000     0.000000     0.000000
    4    -1.000000    90.000000     0.000000     0.000000    -1.000000     0.000000     0.000000     0.000000
    5     1.000000   180.000000     0.000000     0.000000     1.000000     0.000000     0.000000     0.000000
    6    -1.000000   180.000000     0.000000     0.000000     1.000000     0.000000     0.000000     0.000000
    7     1.000000    90.000000     0.000000     0.000000     1.000000     0.000000     0.000000     0.000000
    8    -1.000000    90.000000     0.000000     0.000000     1.000000     0.000000     0.000000     0.000000
    9     1.000000   180.000000     1.000000     0.000000     0.000000     0.000000     0.000000     0.000000
   10    -1.000000   180.000000     1.000000     0.000000     0.000000     0.000000     0.000000     0.000000
   11     1.000000   180.000000     0.707107     0.707107     0.000000     0.000000     0.000000     0.000000
   12    -1.000000   180.000000     0.707107     0.707107     0.000000     0.000000     0.000000     0.000000
   13     1.000000   180.000000     0.000000     1.000000     0.000000     0.000000     0.000000     0.000000
   14    -1.000000   180.000000     0.000000     1.000000     0.000000     0.000000     0.000000     0.000000
   15     1.000000   180.000000     0.707107    -0.707107     0.000000     0.000000     0.000000     0.000000
   16    -1.000000   180.000000     0.707107    -0.707107     0.000000     0.000000     0.000000     0.000000
 
 Subroutine IBZKPT returns following result:
 ===========================================
 
 Found      1 irreducible k-points:
 
 Following reciprocal coordinates:
            Coordinates               Weight
  0.000000  0.000000  0.000000      1.000000
 
 Following cartesian coordinates:
            Coordinates               Weight
  0.000000  0.000000  0.000000      1.000000
 


--------------------------------------------------------------------------------------------------------




 Dimension of arrays:
   k-points           NKPTS =      1   k-points in BZ     NKDIM =      1   number of bands    NBANDS=     32
   number of dos      NEDOS =    301   number of ions     NIONS =      4
   non local maximal  LDIM  =      6   non local SUM 2l+1 LMDIM =     18
   total plane-waves  NPLWV =   4096
   max r-space proj   IRMAX =      1   max aug-charges    IRDMAX=   5985
   dimension x,y,z NGX =    16 NGY =   16 NGZ =   16
   dimension x,y,z NGXF=    32 NGYF=   32 NGZF=   32
   support grid    NGXF=    32 NGYF=   32 NGZF=   32
   ions per type =               1   1   2
   NGX,Y,Z   is equivalent  to a cutoff of   7.60,  7.60,  7.60 a.u.
   NGXF,Y,Z  is equivalent  to a cutoff of  15.20, 15.20, 15.20 a.u.

 SYSTEM =  unknown system                          
 POSCAR =  Pt Pt Pt                                

 Startparameter for this run:
   NWRITE =      2    write-flag & timer
   PREC   = normal    normal or accurate (medium, high low for compatibility)
   ISTART =      1    job   : 0-new  1-cont  2-samecut
   ICHARG =      0    charge: 1-file 2-atom 10-const
   ISPIN  =      1    spin polarized calculation?
   LNONCOLLINEAR =      F non collinear calculations
   LSORBIT =      F    spin-orbit coupling
   INIWAV =      1    electr: 0-lowe 1-rand  2-diag
   LASPH  =      F    aspherical Exc in radial PAW
   METAGGA=      F    non-selfconsistent MetaGGA calc.

 Electronic Relaxation 1
   ENCUT  =  294.6 eV  21.65 Ry    4.65 a.u.   4.90  4.90  4.90*2*pi/ulx,y,z
   ENINI  =  294.6     initial cutoff
   ENAUG  =  527.0 eV  augmentation charge cutoff
   NELM   =     60;   NELMIN=  2; NELMDL=  0     # of ELM steps 
   EDIFF  = 0.1E-03   stopping-criterion for ELM
   LREAL  =      F    real-space projection
   NLSPLINE    = F    spline interpolate recip. space projectors
   LCOMPAT=      F    compatible to vasp.4.4
   GGA_COMPAT  = T    GGA compatible to vasp.4.4-vasp.4.6
   LMAXPAW     = -100 max onsite density
   LMAXMIX     =    2 max onsite mixed and CHGCAR
   VOSKOWN=      0    Vosko Wilk Nusair interpolation
   ROPT   =    0.00000   0.00000   0.00000
 Ionic relaxation
   EDIFFG = 0.1E-02   stopping-criterion for IOM
   NSW    =      0    number of steps for IOM
   NBLOCK =      1;   KBLOCK =      1    inner block; outer block 
   IBRION =     -1    ionic relax: 0-MD 1-quasi-New 2-CG
   NFREE  =      0    steps in history (QN), initial steepest desc. (CG)
   ISIF   =      2    stress and relaxation
   IWAVPR =     10    prediction:  0-non 1-charg 2-wave 3-comb
   ISYM   =      2    0-nonsym 1-usesym 2-fastsym
   LCORR  =      T    Harris-Foulkes like correction to forces

   POTIM  = 0.5000    time-step for ionic-motion
   TEIN   =    0.0    initial temperature
   TEBEG  =    0.0;   TEEND  =   0.0 temperature during run
   SMASS  =  -3.00    Nose mass-parameter (am)
   estimated Nose-frequenzy (Omega)   =  0.10E-29 period in steps = 0.13E+47 mass=  -0.280E-27a.u.
   SCALEE = 1.0000    scale energy and forces
   NPACO  =    256;   APACO  = 16.0  distance and # of slots for P.C.
   PSTRESS=    0.0 pullay stress

  Mass of Ions in am
   POMASS = 195.08195.08195.08
  Ionic Valenz
   ZVAL   =  16.00 16.00 10.00
  Atomic Wigner-Seitz radii
   RWIGS  =  -1.00 -1.00 -1.00
  virtual crystal weights 
   VCA    =   1.00  1.00  1.00
   NELECT =      52.0000    total number of electrons
   NUPDOWN=      -1.0000    fix difference up-down

 DOS related values:
   EMIN   =  10.00;   EMAX   =-10.00  energy-range for DOS
   EFERMI =   0.00
   ISMEAR =     1;   SIGMA  =   0.20  broadening in eV -4-tet -1-fermi 0-gaus

 Electronic relaxation 2 (details)
   IALGO  =     38    algorithm
   LDIAG  =      T    sub-space diagonalisation (order eigenvalues)
   LSUBROT=      F    optimize rotation matrix (better conditioning)
   TURBO    =      0    0=normal 1=particle mesh
   IRESTART =      0    0=no restart 2=restart with 2 vectors
   NREBOOT  =      0    no. of reboots
   NMIN     =      0    reboot dimension
   EREF     =   0.00    reference energy to select bands
   IMIX   =      4    mixing-type and parameters
     AMIX     =   0.40;   BMIX     =  1.00
     AMIX_MAG =   1.60;   BMIX_MAG =  1.00
     AMIN     =   0.10
     WC   =   100.;   INIMIX=   1;  MIXPRE=   1;  MAXMIX= -45

 Intra band minimization:
   WEIMIN = 0.0000     energy-eigenvalue tresh-hold
   EBREAK =  0.78E-06  absolut break condition
   DEPER  =   0.30     relativ break condition  

   TIME   =   0.40     timestep for ELM

  volume/ion in A,a.u.               =      10.72        72.33
  Fermi-wavevector in a.u.,A,eV,Ry     =   1.745854  3.299186 41.470638  3.048006
  Thomas-Fermi vector in A             =   2.817461
 
 Write flags
   LWAVE        =      T    write WAVECAR
   LDOWNSAMPLE  =      F    k-point downsampling of WAVECAR
   LCHARG       =      T    write CHGCAR
   LVTOT        =      F    write LOCPOT, total local potential
   LVHAR        =      F    write LOCPOT, Hartree potential only
   LELF         =      F    write electronic localiz. function (ELF)
   LORBIT       =      0    0 simple, 1 ext, 2 COOP (PROOUT), +10 PAW based schemes


 Dipole corrections
   LMONO  =      F    monopole corrections only (constant potential shift)
   LDIPOL =      F    correct potential (dipole corrections)
   IDIPOL =      0    1-x, 2-y, 3-z, 4-all directions 
   EPSILON=  1.0000000 bulk dielectric constant

 Exchange correlation treatment:
   GGA     =    PE    GGA type
   LEXCH   =     8    internal setting for exchange type
   VOSKOWN=      0    Vosko Wilk Nusair interpolation
   LHFCALC =     F    Hartree Fock is set to
   LHFONE  =     F    Hartree Fock one center treatment
   AEXX    =    0.0000 exact exchange contribution

 Linear response parameters
   LEPSILON=     F    determine dielectric tensor
   LRPA    =     F    only Hartree local field effects (RPA)
   LNABLA  =     F    use nabla operator in PAW spheres
   LVEL    =     F    velocity operator in full k-point grid
   LINTERFAST=   F  fast interpolation
   KINTER  =     0    interpolate to denser k-point grid
   CSHIFT  =0.1000    complex shift for real part using Kramers Kronig
   OMEGAMAX=  -1.0    maximum frequency
   DEG_THRESHOLD= 0.2000000E-02 threshold for treating states as degnerate
   RTIME   =   -0.100 relaxation time in fs
  (WPLASMAI=    0.000 imaginary part of plasma frequency in eV, 0.658/RTIME)
   DFIELD  = 0.0000000 0.0000000 0.0000000 field for delta impulse in time
 
 Orbital magnetization related:
   ORBITALMAG=     F  switch on orbital magnetization
   LCHIMAG   =     F  perturbation theory with respect to B field
   DQ        =  0.001000  dq finite difference perturbation B field
   LLRAUG    =     F  two centre corrections for induced B field



--------------------------------------------------------------------------------------------------------


 Static calculation
 charge density and potential will be updated during run
 non-spin polarized calculation
 Variant of blocked Davidson
 Davidson routine will perform the subspace rotation
 perform sub-space diagonalisation
    after iterative eigenvector-optimisation
 modified Broyden-mixing scheme, WC =      100.0
 initial mixing is a Kerker type mixing with AMIX =  0.4000 and BMIX =      1.0000
 Hartree-type preconditioning will be used
 using additional bands            6
 reciprocal scheme for non local part
 use partial core corrections
 calculate Harris-corrections to forces 
   (improved forces if not selfconsistent)
 use gradient corrections 
 use of overlap-Matrix (Vanderbilt PP)
 Methfessel and Paxton  Order N= 1 SIGMA  =   0.20


--------------------------------------------------------------------------------------------------------


  energy-cutoff  :      294.61
  volume of cell :       42.88
      direct lattice vectors                 reciprocal lattice vectors
     3.500000000  0.000000000  0.000000000     0.285714286  0.000000000  0.000000000
     0.000000000  3.500000000  0.000000000     0.000000000  0.285714286  0.000000000
     0.000000000  0.000000000  3.500000000     0.000000000  0.000000000  0.285714286

  length of vectors
     3.500000000  3.500000000  3.500000000     0.285714286  0.285714286  0.285714286


 
 old parameters found on file WAVECAR:
  energy-cutoff  :      294.61
  volume of cell :       42.88
      direct lattice vectors                 reciprocal lattice vectors
     3.500000000  0.000000000  0.000000000     0.285714286  0.000000000  0.000000000
     0.000000000  3.500000000  0.000000000     0.000000000  0.285714286  0.000000000
     0.000000000  0.000000000  3.500000000     0.000000000  0.000000000  0.285714286

  length of vectors

 
 k-points in units of 2pi/SCALE and weight: KPOINTS created by Atomic Simulation Env
   0.00000000  0.00000000  0.00000000       1.000
 
 k-points in reciprocal lattice and weights: KPOINTS created by Atomic Simulation Env
   0.00000000  0.00000000  0.00000000       1.000
 
 position of ions in fractional coordinates (direct lattice) 
   0.00000000  0.00000000  0.00000000
   0.50000000  0.50000000  0.00000000
   0.00000000  0.50000000  0.50000000
   0.50000000  0.00000000  0.50000000
 
 position of ions in cartesian coordinates  (Angst):
   0.00000000  0.00000000  0.00000000
   1.75000000  1.75000000  0.00000000
   0.00000000  1.75000000  1.75000000
   1.75000000  0.00000000  1.75000000
 


--------------------------------------------------------------------------------------------------------


 k-point   1 :   0.0000 0.0000 0.0000  plane waves:     461

 maximum and minimum number of plane-waves per node :       461      461

 maximum number of plane-waves:       461
 maximum index in each direction: 
   IXMAX=    4   IYMAX=    4   IZMAX=    4
   IXMIN=   -4   IYMIN=   -4   IZMIN=   -4


 serial   3D FFT for wavefunctions
 parallel 3D FFT for charge:
    minimum data exchange during FFTs selected (reduces bandwidth)


 total amount of memory used by VASP MPI-rank0    30707. kBytes
=======================================================================

   base      :      30000. kBytes
   nonl-proj :        230. kBytes
   fftplans  :         93. kBytes
   grid      :        305. kBytes
   one-center:         62. kBytes
   wavefun   :         17. kBytes
 
     INWAV:  cpu time    0.0027: real time    0.0029
 Broyden mixing: mesh for mixing (old mesh)
   NGX =  9   NGY =  9   NGZ =  9
  (NGX  = 32   NGY  = 32   NGZ  = 32)
  gives a total of    729 points

 charge density for first step will be calculated from the start-wavefunctions


--------------------------------------------------------------------------------------------------------


 Maximum index for augmentation-charges          377 (set IRDMAX)


--------------------------------------------------------------------------------------------------------


 initial charge from wavefunction
 First call to EWALD:  gamma=   0.506
 Maximum number of real-space cells 3x 3x 3
 Maximum number of reciprocal cells 3x 3x 3

    FEWALD:  cpu time    0.0012: real time    0.0012


--------------------------------------- Iteration      1(   1)  ---------------------------------------


    POTLOK:  cpu time    0.0032: real time    0.0033
    SETDIJ:  cpu time    0.0026: real time    0.0026
     EDDAV:  cpu time    0.0327: real time    0.0327
       DOS:  cpu time    0.0004: real time    0.0004
    CHARGE:  cpu time    0.0045: real time    0.0045
    MIXING:  cpu time    0.0007: real time    0.0010
    --------------------------------------------
      LOOP:  cpu time    0.0442: real time    0.0445

 eigenvalue-minimisations  :   112
 total energy-change (2. order) :-0.2083462E+04  (-0.2897716E+04)
 number of electron      52.0000234 magnetization 
 augmentation part       15.0374016 magnetization 

 Broyden mixing:
  rms(total) = 0.11121E+03    rms(broyden)= 0.11120E+03
  rms(prec ) = 0.12524E+03
  weight for this iteration     100.00

 Free energy of the ion-electron system (eV)
  ---------------------------------------------------
  alpha Z        PSCENC =       594.32374129
  Ewald energy   TEWEN  =     -6542.72582504
  -Hartree energ DENC   =      -344.44925069
  -exchange      EXHF   =         0.00000000
  -V(xc)+E(xc)   XCENC  =        94.98500930
  PAW double counting   =     81873.42447388   -81825.31968488
  entropy T*S    EENTRO =         0.02255638
  eigenvalues    EBANDS =     -2248.05294284
  atomic energy  EATOM  =      6314.32970236
  Solvation  Ediel_sol  =         0.00000000
  ---------------------------------------------------
  free energy    TOTEN  =     -2083.46222023 eV

  energy without entropy =    -2083.48477661  energy(sigma->0) =    -2083.46973902


--------------------------------------------------------------------------------------------------------




--------------------------------------- Iteration      1(   2)  ---------------------------------------


    POTLOK:  cpu time    0.0020: real time    0.0020
    SETDIJ:  cpu time    0.0022: real time    0.0022
     EDDAV:  cpu time    0.0331: real time    0.0331
       DOS:  cpu time    0.0002: real time    0.0002
    CHARGE:  cpu time    0.0020: real time    0.0020
    MIXING:  cpu time    0.0004: real time    0.0004
    --------------------------------------------
      LOOP:  cpu time    0.0399: real time    0.0399

 eigenvalue-minimisations  :    96
 total energy-change (2. order) : 0.2041164E+04  (-0.4845102E+03)
 number of electron      52.0000202 magnetization 
 augmentation part       14.0926086 magnetization 

 Broyden mixing:
  rms(total) = 0.41980E+02    rms(broyden)= 0.41973E+02
  rms(prec ) = 0.44952E+02
  weight for this iteration     100.00

 eigenvalues of (default mixing * dielectric matrix)
  average eigenvalue GAMMA=   0.7416
  0.7416

 Free energy of the ion-electron system (eV)
  ---------------------------------------------------
  alpha Z        PSCENC =       594.32374129
  Ewald energy   TEWEN  =     -6542.72582504
  -Hartree energ DENC   =      -599.52441819
  -exchange      EXHF   =         0.00000000
  -V(xc)+E(xc)   XCENC  =       136.15476573
  PAW double counting   =    225696.34662188  -225635.14702862
  entropy T*S    EENTRO =         0.02709023
  eigenvalues    EBANDS =        -6.08308810
  atomic energy  EATOM  =      6314.32970236
  Solvation  Ediel_sol  =         0.00000000
  ---------------------------------------------------
  free energy    TOTEN  =       -42.29843843 eV

  energy without entropy =      -42.32552867  energy(sigma->0) =      -42.30746851


--------------------------------------------------------------------------------------------------------




--------------------------------------- Iteration      1(   3)  ---------------------------------------


    POTLOK:  cpu time    0.0020: real time    0.0021
    SETDIJ:  cpu time    0.0021: real time    0.0021
     EDDAV:  cpu time    0.0210: real time    0.0210
       DOS:  cpu time    0.0014: real time    0.0014
    CHARGE:  cpu time    0.0018: real time    0.0018
    MIXING:  cpu time    0.0007: real time    0.0007
    --------------------------------------------
      LOOP:  cpu time    0.0288: real time    0.0290

 eigenvalue-minimisations  :    80
 total energy-change (2. order) : 0.6544145E+02  (-0.7938793E+02)
 number of electron      52.0000159 magnetization 
 augmentation part       14.7276249 magnetization 

 Broyden mixing:
  rms(total) = 0.47306E+02    rms(broyden)= 0.47305E+02
  rms(prec ) = 0.47500E+02
  weight for this iteration     100.00

 eigenvalues of (default mixing * dielectric matrix)
  average eigenvalue GAMMA=   1.1444
  1.1444  1.1444

 Free energy of the ion-electron system (eV)
  ---------------------------------------------------
  alpha Z        PSCENC =       594.32374129
  Ewald energy   TEWEN  =     -6542.72582504
  -Hartree energ DENC   =      -757.99312442
  -exchange      EXHF   =         0.00000000
  -V(xc)+E(xc)   XCENC  =       141.18275176
  PAW double counting   =    143217.70142533  -143136.72354673
  entropy T*S    EENTRO =        -0.20622082
  eigenvalues    EBANDS =       193.25410414
  atomic energy  EATOM  =      6314.32970236
  Solvation  Ediel_sol  =         0.00000000
  ---------------------------------------------------
  free energy    TOTEN  =        23.14300789 eV

  energy without entropy =       23.34922870  energy(sigma->0) =       23.21174816


--------------------------------------------------------------------------------------------------------




--------------------------------------- Iteration      1(   4)  ---------------------------------------


    POTLOK:  cpu time    0.0021: real time    0.0023
    SETDIJ:  cpu time    0.0023: real time    0.0023
     EDDAV:  cpu time    0.0184: real time    0.0184
       DOS:  cpu time    0.0002: real time    0.0002
    CHARGE:  cpu time    0.0020: real time    0.0020
    MIXING:  cpu time    0.0005: real time    0.0004
    --------------------------------------------
      LOOP:  cpu time    0.0254: real time    0.0255

 eigenvalue-minimisations  :    80
 total energy-change (2. order) :-0.7496012E+02  (-0.7835354E+02)
 number of electron      52.0000170 magnetization 
 augmentation part       13.9150552 magnetization 

 Broyden mixing:
  rms(total) = 0.15829E+02    rms(broyden)= 0.15828E+02
  rms(prec ) = 0.21381E+02
  weight for this iteration     100.00

 eigenvalues of (default mixing * dielectric matrix)
  average eigenvalue GAMMA=   1.3233
  2.2153  1.1646  0.5899

 Free energy of the ion-electron system (eV)
  ---------------------------------------------------
  alpha Z        PSCENC =       594.32374129
  Ewald energy   TEWEN  =     -6542.72582504
  -Hartree energ DENC   =      -636.38413409
  -exchange      EXHF   =         0.00000000
  -V(xc)+E(xc)   XCENC  =       137.62124797
  PAW double counting   =     68447.13217782   -68373.49511265
  entropy T*S    EENTRO =         0.01792707
  eigenvalues    EBANDS =         7.36315910
  atomic energy  EATOM  =      6314.32970236
  Solvation  Ediel_sol  =         0.00000000
  ---------------------------------------------------
  free energy    TOTEN  =       -51.81711616 eV

  energy without entropy =      -51.83504324  energy(sigma->0) =      -51.82309186


--------------------------------------------------------------------------------------------------------




--------------------------------------- Iteration      1(   5)  ---------------------------------------


    POTLOK:  cpu time    0.0020: real time    0.0021
    SETDIJ:  cpu time    0.0022: real time    0.0022
     EDDAV:  cpu time    0.0147: real time    0.0147
       DOS:  cpu time    0.0002: real time    0.0002
    CHARGE:  cpu time    0.0029: real time    0.0029
    MIXING:  cpu time    0.0006: real time    0.0006
    --------------------------------------------
      LOOP:  cpu time    0.0227: real time    0.0228

 eigenvalue-minimisations  :    64
 total energy-change (2. order) : 0.6297125E+02  (-0.8930553E+01)
 number of electron      52.0000230 magnetization 
 augmentation part       13.9939867 magnetization 

 Broyden mixing:
  rms(total) = 0.42674E+01    rms(broyden)= 0.42609E+01
  rms(prec ) = 0.79473E+01
  weight for this iteration     100.00

 eigenvalues of (default mixing * dielectric matrix)
  average eigenvalue GAMMA=   1.2690
  2.6978  1.0436  0.6673  0.6673

 Free energy of the ion-electron system (eV)
  ---------------------------------------------------
  alpha Z        PSCENC =       594.32374129
  Ewald energy   TEWEN  =     -6542.72582504
  -Hartree energ DENC   =      -733.98529961
  -exchange      EXHF   =         0.00000000
  -V(xc)+E(xc)   XCENC  =       141.26905821
  PAW double counting   =     14075.37303778   -13980.51706990
  entropy T*S    EENTRO =        -0.03135730
  eigenvalues    EBANDS =       143.11814913
  atomic energy  EATOM  =      6314.32970236
  Solvation  Ediel_sol  =         0.00000000
  ---------------------------------------------------
  free energy    TOTEN  =        11.15413693 eV

  energy without entropy =       11.18549423  energy(sigma->0) =       11.16458936


--------------------------------------------------------------------------------------------------------




--------------------------------------- Iteration      1(   6)  ---------------------------------------


    POTLOK:  cpu time    0.0021: real time    0.0022
    SETDIJ:  cpu time    0.0023: real time    0.0023
     EDDAV:  cpu time    0.0268: real time    0.0268
       DOS:  cpu time    0.0004: real time    0.0004
    CHARGE:  cpu time    0.0019: real time    0.0019
    MIXING:  cpu time    0.0004: real time    0.0004
    --------------------------------------------
      LOOP:  cpu time    0.0339: real time    0.0340

 eigenvalue-minimisations  :    96
 total energy-change (2. order) : 0.1166696E+02  (-0.4763006E+01)
 number of electron      52.0000184 magnetization 
 augmentation part       14.9692754 magnetization 

 Broyden mixing:
  rms(total) = 0.58571E+01    rms(broyden)= 0.58507E+01
  rms(prec ) = 0.70927E+01
  weight for this iteration     100.00

 eigenvalues of (default mixing * dielectric matrix)
  average eigenvalue GAMMA=   1.0708
  2.5705  1.0199  0.6802  0.5417  0.5417

 Free energy of the ion-electron system (eV)
  ---------------------------------------------------
  alpha Z        PSCENC =       594.32374129
  Ewald energy   TEWEN  =     -6542.72582504
  -Hartree energ DENC   =      -765.27791920
  -exchange      EXHF   =         0.00000000
  -V(xc)+E(xc)   XCENC  =       142.18555638
  PAW double counting   =     10831.79386079   -10732.08326687
  entropy T*S    EENTRO =         0.05015909
  eigenvalues    EBANDS =       180.22509218
  atomic energy  EATOM  =      6314.32970236
  Solvation  Ediel_sol  =         0.00000000
  ---------------------------------------------------
  free energy    TOTEN  =        22.82110099 eV

  energy without entropy =       22.77094191  energy(sigma->0) =       22.80438130


--------------------------------------------------------------------------------------------------------




--------------------------------------- Iteration      1(   7)  ---------------------------------------


    POTLOK:  cpu time    0.0024: real time    0.0026
    SETDIJ:  cpu time    0.0023: real time    0.0023
     EDDAV:  cpu time    0.0153: real time    0.0153
       DOS:  cpu time    0.0002: real time    0.0002
    CHARGE:  cpu time    0.0019: real time    0.0019
    MIXING:  cpu time    0.0005: real time    0.0005
    --------------------------------------------
      LOOP:  cpu time    0.0225: real time    0.0227

 eigenvalue-minimisations  :    64
 total energy-change (2. order) :-0.1286937E+01  (-0.5395826E+01)
 number of electron      52.0000188 magnetization 
 augmentation part       14.8160833 magnetization 

 Broyden mixing:
  rms(total) = 0.55539E+01    rms(broyden)= 0.55414E+01
  rms(prec ) = 0.69636E+01
  weight for this iteration     100.00

 eigenvalues of (default mixing * dielectric matrix)
  average eigenvalue GAMMA=   0.9140
  2.4632  1.0506  0.6526  0.5833  0.5833  0.1509

 Free energy of the ion-electron system (eV)
  ---------------------------------------------------
  alpha Z        PSCENC =       594.32374129
  Ewald energy   TEWEN  =     -6542.72582504
  -Hartree energ DENC   =      -777.10852557
  -exchange      EXHF   =         0.00000000
  -V(xc)+E(xc)   XCENC  =       142.60569319
  PAW double counting   =     10892.09174324   -10789.94699069
  entropy T*S    EENTRO =        -0.02058403
  eigenvalues    EBANDS =       187.98520892
  atomic energy  EATOM  =      6314.32970236
  Solvation  Ediel_sol  =         0.00000000
  ---------------------------------------------------
  free energy    TOTEN  =        21.53416370 eV

  energy without entropy =       21.55474772  energy(sigma->0) =       21.54102504


--------------------------------------------------------------------------------------------------------




--------------------------------------- Iteration      1(   8)  ---------------------------------------


    POTLOK:  cpu time    0.0022: real time    0.0023
    SETDIJ:  cpu time    0.0023: real time    0.0023
     EDDAV:  cpu time    0.0225: real time    0.0225
       DOS:  cpu time    0.0002: real time    0.0002
    CHARGE:  cpu time    0.0022: real time    0.0022
    MIXING:  cpu time    0.0005: real time    0.0005
    --------------------------------------------
      LOOP:  cpu time    0.0299: real time    0.0301

 eigenvalue-minimisations  :    96
 total energy-change (2. order) : 0.2497125E+01  (-0.8979896E-01)
 number of electron      52.0000210 magnetization 
 augmentation part       14.3897083 magnetization 

 Broyden mixing:
  rms(total) = 0.37074E+01    rms(broyden)= 0.37068E+01
  rms(prec ) = 0.50412E+01
  weight for this iteration     100.00

 eigenvalues of (default mixing * dielectric matrix)
  average eigenvalue GAMMA=   0.8871
  2.4421  1.0592  0.7176  0.7176  0.6587  0.3071  0.3071

 Free energy of the ion-electron system (eV)
  ---------------------------------------------------
  alpha Z        PSCENC =       594.32374129
  Ewald energy   TEWEN  =     -6542.72582504
  -Hartree energ DENC   =      -779.33709710
  -exchange      EXHF   =         0.00000000
  -V(xc)+E(xc)   XCENC  =       142.65755923
  PAW double counting   =     12271.43840531   -12168.80094324
  entropy T*S    EENTRO =        -0.03166797
  eigenvalues    EBANDS =       192.17741400
  atomic energy  EATOM  =      6314.32970236
  Solvation  Ediel_sol  =         0.00000000
  ---------------------------------------------------
  free energy    TOTEN  =        24.03128885 eV

  energy without entropy =       24.06295682  energy(sigma->0) =       24.04184484


--------------------------------------------------------------------------------------------------------




--------------------------------------- Iteration      1(   9)  ---------------------------------------


    POTLOK:  cpu time    0.0018: real time    0.0020
    SETDIJ:  cpu time    0.0021: real time    0.0021
     EDDAV:  cpu time    0.0175: real time    0.0175
       DOS:  cpu time    0.0003: real time    0.0003
    CHARGE:  cpu time    0.0019: real time    0.0019
    MIXING:  cpu time    0.0005: real time    0.0004
    --------------------------------------------
      LOOP:  cpu time    0.0241: real time    0.0242

 eigenvalue-minimisations  :    64
 total energy-change (2. order) :-0.3839681E+00  (-0.1518008E+01)
 number of electron      52.0000188 magnetization 
 augmentation part       15.5093216 magnetization 

 Broyden mixing:
  rms(total) = 0.49427E+01    rms(broyden)= 0.49320E+01
  rms(prec ) = 0.55353E+01
  weight for this iteration     100.00

 eigenvalues of (default mixing * dielectric matrix)
  average eigenvalue GAMMA=   0.7891
  2.4700  1.0347  0.7016  0.7016  0.6839  0.2834  0.2834  0.1542

 Free energy of the ion-electron system (eV)
  ---------------------------------------------------
  alpha Z        PSCENC =       594.32374129
  Ewald energy   TEWEN  =     -6542.72582504
  -Hartree energ DENC   =      -767.50844350
  -exchange      EXHF   =         0.00000000
  -V(xc)+E(xc)   XCENC  =       142.18420956
  PAW double counting   =     13571.06725805   -13470.55211913
  entropy T*S    EENTRO =        -0.21355643
  eigenvalues    EBANDS =       182.74235356
  atomic energy  EATOM  =      6314.32970236
  Solvation  Ediel_sol  =         0.00000000
  ---------------------------------------------------
  free energy    TOTEN  =        23.64732073 eV

  energy without entropy =       23.86087716  energy(sigma->0) =       23.71850621


--------------------------------------------------------------------------------------------------------




--------------------------------------- Iteration      1(  10)  ---------------------------------------


    POTLOK:  cpu time    0.0025: real time    0.0026
    SETDIJ:  cpu time    0.0025: real time    0.0025
     EDDAV:  cpu time    0.0243: real time    0.0243
       DOS:  cpu time    0.0002: real time    0.0002
    CHARGE:  cpu time    0.0019: real time    0.0019
    MIXING:  cpu time    0.0006: real time    0.0006
    --------------------------------------------
      LOOP:  cpu time    0.0320: real time    0.0321

 eigenvalue-minimisations  :    96
 total energy-change (2. order) : 0.3093984E+00  (-0.2116469E+00)
 number of electron      52.0000185 magnetization 
 augmentation part       15.5377747 magnetization 

 Broyden mixing:
  rms(total) = 0.46034E+01    rms(broyden)= 0.46014E+01
  rms(prec ) = 0.50471E+01
  weight for this iteration     100.00

 eigenvalues of (default mixing * dielectric matrix)
  average eigenvalue GAMMA=   0.7097
  2.4628  1.0369  0.7127  0.7127  0.6770  0.2889  0.2889  0.1936  0.0136

 Free energy of the ion-electron system (eV)
  ---------------------------------------------------
  alpha Z        PSCENC =       594.32374129
  Ewald energy   TEWEN  =     -6542.72582504
  -Hartree energ DENC   =      -767.29710576
  -exchange      EXHF   =         0.00000000
  -V(xc)+E(xc)   XCENC  =       142.16810193
  PAW double counting   =     13589.13999566   -13488.53679085
  entropy T*S    EENTRO =        -0.29890851
  eigenvalues    EBANDS =       182.85380802
  atomic energy  EATOM  =      6314.32970236
  Solvation  Ediel_sol  =         0.00000000
  ---------------------------------------------------
  free energy    TOTEN  =        23.95671911 eV

  energy without entropy =       24.25562762  energy(sigma->0) =       24.05635528


--------------------------------------------------------------------------------------------------------




--------------------------------------- Iteration      1(  11)  ---------------------------------------


    POTLOK:  cpu time    0.0020: real time    0.0021
    SETDIJ:  cpu time    0.0022: real time    0.0022
     EDDAV:  cpu time    0.0183: real time    0.0183
       DOS:  cpu time    0.0002: real time    0.0002
    CHARGE:  cpu time    0.0019: real time    0.0019
    MIXING:  cpu time    0.0007: real time    0.0007
    --------------------------------------------
      LOOP:  cpu time    0.0254: real time    0.0255

 eigenvalue-minimisations  :    80
 total energy-change (2. order) : 0.5522760E-01  (-0.8163293E-01)
 number of electron      52.0000186 magnetization 
 augmentation part       15.5269370 magnetization 

 Broyden mixing:
  rms(total) = 0.46562E+01    rms(broyden)= 0.46553E+01
  rms(prec ) = 0.50649E+01
  weight for this iteration     100.00

 eigenvalues of (default mixing * dielectric matrix)
  average eigenvalue GAMMA=   0.7605
  2.4725  1.0879  1.0879  1.0002  0.7329  0.4358  0.4358  0.1652  0.1652  0.0220

 Free energy of the ion-electron system (eV)
  ---------------------------------------------------
  alpha Z        PSCENC =       594.32374129
  Ewald energy   TEWEN  =     -6542.72582504
  -Hartree energ DENC   =      -767.28585876
  -exchange      EXHF   =         0.00000000
  -V(xc)+E(xc)   XCENC  =       142.16604003
  PAW double counting   =     13594.16558729   -13493.52645640
  entropy T*S    EENTRO =        -0.29901701
  eigenvalues    EBANDS =       182.86403292
  atomic energy  EATOM  =      6314.32970236
  Solvation  Ediel_sol  =         0.00000000
  ---------------------------------------------------
  free energy    TOTEN  =        24.01194670 eV

  energy without entropy =       24.31096371  energy(sigma->0) =       24.11161904


--------------------------------------------------------------------------------------------------------




--------------------------------------- Iteration      1(  12)  ---------------------------------------


    POTLOK:  cpu time    0.0021: real time    0.0022
    SETDIJ:  cpu time    0.0023: real time    0.0023
     EDDAV:  cpu time    0.0147: real time    0.0147
       DOS:  cpu time    0.0003: real time    0.0003
    CHARGE:  cpu time    0.0019: real time    0.0019
    MIXING:  cpu time    0.0006: real time    0.0005
    --------------------------------------------
      LOOP:  cpu time    0.0218: real time    0.0219

 eigenvalue-minimisations  :    64
 total energy-change (2. order) : 0.2359742E+00  (-0.3153046E-01)
 number of electron      52.0000201 magnetization 
 augmentation part       15.4068794 magnetization 

 Broyden mixing:
  rms(total) = 0.42105E+01    rms(broyden)= 0.42095E+01
  rms(prec ) = 0.45092E+01
  weight for this iteration     100.00

 eigenvalues of (default mixing * dielectric matrix)
  average eigenvalue GAMMA=   0.7946
  2.4885  1.2667  1.2667  1.0341  0.7140  0.6594  0.6594  0.2688  0.1802  0.1802
  0.0226

 Free energy of the ion-electron system (eV)
  ---------------------------------------------------
  alpha Z        PSCENC =       594.32374129
  Ewald energy   TEWEN  =     -6542.72582504
  -Hartree energ DENC   =      -769.96531158
  -exchange      EXHF   =         0.00000000
  -V(xc)+E(xc)   XCENC  =       142.25471787
  PAW double counting   =     13724.86303468   -13623.15763451
  entropy T*S    EENTRO =        -0.38747278
  eigenvalues    EBANDS =       184.71296862
  atomic energy  EATOM  =      6314.32970236
  Solvation  Ediel_sol  =         0.00000000
  ---------------------------------------------------
  free energy    TOTEN  =        24.24792092 eV

  energy without entropy =       24.63539370  energy(sigma->0) =       24.37707852


--------------------------------------------------------------------------------------------------------




--------------------------------------- Iteration      1(  13)  ---------------------------------------


    POTLOK:  cpu time    0.0019: real time    0.0020
    SETDIJ:  cpu time    0.0023: real time    0.0023
     EDDAV:  cpu time    0.0148: real time    0.0148
       DOS:  cpu time    0.0003: real time    0.0003
    CHARGE:  cpu time    0.0019: real time    0.0019
    MIXING:  cpu time    0.0005: real time    0.0005
    --------------------------------------------
      LOOP:  cpu time    0.0217: real time    0.0219

 eigenvalue-minimisations  :    64
 total energy-change (2. order) :-0.9421781E+00  (-0.5534302E+00)
 number of electron      52.0000192 magnetization 
 augmentation part       14.7113694 magnetization 

 Broyden mixing:
  rms(total) = 0.30482E+01    rms(broyden)= 0.30404E+01
  rms(prec ) = 0.47691E+01
  weight for this iteration     100.00

 eigenvalues of (default mixing * dielectric matrix)
  average eigenvalue GAMMA=   0.8256
  2.4733  1.2836  1.2836  1.1187  0.9705  0.9705  0.5663  0.5663  0.2906  0.1804
  0.1804  0.0226

 Free energy of the ion-electron system (eV)
  ---------------------------------------------------
  alpha Z        PSCENC =       594.32374129
  Ewald energy   TEWEN  =     -6542.72582504
  -Hartree energ DENC   =      -767.30982756
  -exchange      EXHF   =         0.00000000
  -V(xc)+E(xc)   XCENC  =       142.18660006
  PAW double counting   =     13348.75951256   -13246.97775462
  entropy T*S    EENTRO =        -0.05857915
  eigenvalues    EBANDS =       180.77817296
  atomic energy  EATOM  =      6314.32970236
  Solvation  Ediel_sol  =         0.00000000
  ---------------------------------------------------
  free energy    TOTEN  =        23.30574286 eV

  energy without entropy =       23.36432201  energy(sigma->0) =       23.32526924


--------------------------------------------------------------------------------------------------------




--------------------------------------- Iteration      1(  14)  ---------------------------------------


    POTLOK:  cpu time    0.0020: real time    0.0022
    SETDIJ:  cpu time    0.0023: real time    0.0022
     EDDAV:  cpu time    0.0147: real time    0.0147
       DOS:  cpu time    0.0002: real time    0.0002
    CHARGE:  cpu time    0.0019: real time    0.0019
    MIXING:  cpu time    0.0005: real time    0.0005
    --------------------------------------------
      LOOP:  cpu time    0.0217: real time    0.0219

 eigenvalue-minimisations  :    64
 total energy-change (2. order) : 0.7023823E+00  (-0.6893573E+00)
 number of electron      52.0000232 magnetization 
 augmentation part       15.2025466 magnetization 

 Broyden mixing:
  rms(total) = 0.38063E+01    rms(broyden)= 0.38009E+01
  rms(prec ) = 0.49289E+01
  weight for this iteration     100.00

 eigenvalues of (default mixing * dielectric matrix)
  average eigenvalue GAMMA=   0.8797
  2.4776  2.2501  1.1636  1.1636  1.0802  0.9376  0.7369  0.4894  0.4894  0.2623
  0.1815  0.1815  0.0226

 Free energy of the ion-electron system (eV)
  ---------------------------------------------------
  alpha Z        PSCENC =       594.32374129
  Ewald energy   TEWEN  =     -6542.72582504
  -Hartree energ DENC   =      -774.19031573
  -exchange      EXHF   =         0.00000000
  -V(xc)+E(xc)   XCENC  =       142.38676336
  PAW double counting   =     14009.97785410   -13905.68774718
  entropy T*S    EENTRO =        -0.23796767
  eigenvalues    EBANDS =       185.83191970
  atomic energy  EATOM  =      6314.32970236
  Solvation  Ediel_sol  =         0.00000000
  ---------------------------------------------------
  free energy    TOTEN  =        24.00812520 eV

  energy without entropy =       24.24609287  energy(sigma->0) =       24.08744776


--------------------------------------------------------------------------------------------------------




--------------------------------------- Iteration      1(  15)  ---------------------------------------


    POTLOK:  cpu time    0.0035: real time    0.0037
    SETDIJ:  cpu time    0.0023: real time    0.0023
     EDDAV:  cpu time    0.0234: real time    0.0234
       DOS:  cpu time    0.0002: real time    0.0002
    CHARGE:  cpu time    0.0020: real time    0.0020
    MIXING:  cpu time    0.0005: real time    0.0005
    --------------------------------------------
      LOOP:  cpu time    0.0318: real time    0.0320

 eigenvalue-minimisations  :    96
 total energy-change (2. order) : 0.1229734E+00  (-0.6604197E-01)
 number of electron      52.0000202 magnetization 
 augmentation part       15.1527754 magnetization 

 Broyden mixing:
  rms(total) = 0.30710E+01    rms(broyden)= 0.30695E+01
  rms(prec ) = 0.43302E+01
  weight for this iteration     100.00

 eigenvalues of (default mixing * dielectric matrix)
  average eigenvalue GAMMA=   0.8172
  2.5088  2.1298  1.0942  1.0942  1.1179  0.9683  0.7379  0.5152  0.5152  0.2707
  0.1813  0.1813  0.1036  0.0226

 Free energy of the ion-electron system (eV)
  ---------------------------------------------------
  alpha Z        PSCENC =       594.32374129
  Ewald energy   TEWEN  =     -6542.72582504
  -Hartree energ DENC   =      -773.75972752
  -exchange      EXHF   =         0.00000000
  -V(xc)+E(xc)   XCENC  =       142.36513365
  PAW double counting   =     14036.49640325   -13932.12762462
  entropy T*S    EENTRO =        -0.24534256
  eigenvalues    EBANDS =       185.47463776
  atomic energy  EATOM  =      6314.32970236
  Solvation  Ediel_sol  =         0.00000000
  ---------------------------------------------------
  free energy    TOTEN  =        24.13109857 eV

  energy without entropy =       24.37644113  energy(sigma->0) =       24.21287943


--------------------------------------------------------------------------------------------------------




--------------------------------------- Iteration      1(  16)  ---------------------------------------


    POTLOK:  cpu time    0.0019: real time    0.0020
    SETDIJ:  cpu time    0.0024: real time    0.0024
     EDDAV:  cpu time    0.0144: real time    0.0144
       DOS:  cpu time    0.0002: real time    0.0002
    CHARGE:  cpu time    0.0021: real time    0.0021
    MIXING:  cpu time    0.0007: real time    0.0007
    --------------------------------------------
      LOOP:  cpu time    0.0217: real time    0.0219

 eigenvalue-minimisations  :    64
 total energy-change (2. order) :-0.4177650E+00  (-0.4394491E+00)
 number of electron      52.0000257 magnetization 
 augmentation part       14.9429032 magnetization 

 Broyden mixing:
  rms(total) = 0.39909E+01    rms(broyden)= 0.39855E+01
  rms(prec ) = 0.56716E+01
  weight for this iteration     100.00

 eigenvalues of (default mixing * dielectric matrix)
  average eigenvalue GAMMA=   0.7880
  2.5120  2.1494  1.0940  1.0940  1.0880  0.9998  0.7268  0.5346  0.5346  0.2833
  0.1812  0.1812  0.2357  0.1831  0.0226

 Free energy of the ion-electron system (eV)
  ---------------------------------------------------
  alpha Z        PSCENC =       594.32374129
  Ewald energy   TEWEN  =     -6542.72582504
  -Hartree energ DENC   =      -781.23784191
  -exchange      EXHF   =         0.00000000
  -V(xc)+E(xc)   XCENC  =       142.63384565
  PAW double counting   =     14170.04943908   -14064.05135557
  entropy T*S    EENTRO =        -0.07811986
  eigenvalues    EBANDS =       190.46974758
  atomic energy  EATOM  =      6314.32970236
  Solvation  Ediel_sol  =         0.00000000
  ---------------------------------------------------
  free energy    TOTEN  =        23.71333359 eV

  energy without entropy =       23.79145346  energy(sigma->0) =       23.73937355


--------------------------------------------------------------------------------------------------------




--------------------------------------- Iteration      1(  17)  ---------------------------------------


    POTLOK:  cpu time    0.0019: real time    0.0021
    SETDIJ:  cpu time    0.0022: real time    0.0022
     EDDAV:  cpu time    0.0146: real time    0.0146
       DOS:  cpu time    0.0003: real time    0.0003
    CHARGE:  cpu time    0.0019: real time    0.0019
    MIXING:  cpu time    0.0007: real time    0.0007
    --------------------------------------------
      LOOP:  cpu time    0.0215: real time    0.0217

 eigenvalue-minimisations  :    64
 total energy-change (2. order) :-0.2088813E+00  (-0.7117755E-02)
 number of electron      52.0000254 magnetization 
 augmentation part       14.9958672 magnetization 

 Broyden mixing:
  rms(total) = 0.41331E+01    rms(broyden)= 0.41329E+01
  rms(prec ) = 0.60000E+01
  weight for this iteration     100.00

 eigenvalues of (default mixing * dielectric matrix)
  average eigenvalue GAMMA=   0.8488
  2.4967  2.1410  1.4191  1.0752  1.0752  1.1094  0.9682  0.7507  0.5587  0.5587
  0.4554  0.3602  0.1813  0.1813  0.2280  0.0226

 Free energy of the ion-electron system (eV)
  ---------------------------------------------------
  alpha Z        PSCENC =       594.32374129
  Ewald energy   TEWEN  =     -6542.72582504
  -Hartree energ DENC   =      -784.14064064
  -exchange      EXHF   =         0.00000000
  -V(xc)+E(xc)   XCENC  =       142.73091434
  PAW double counting   =     14282.22656324   -14175.66445098
  entropy T*S    EENTRO =        -0.05640806
  eigenvalues    EBANDS =       192.48085574
  atomic energy  EATOM  =      6314.32970236
  Solvation  Ediel_sol  =         0.00000000
  ---------------------------------------------------
  free energy    TOTEN  =        23.50445227 eV

  energy without entropy =       23.56086033  energy(sigma->0) =       23.52325496


--------------------------------------------------------------------------------------------------------




--------------------------------------- Iteration      1(  18)  ---------------------------------------


    POTLOK:  cpu time    0.0019: real time    0.0021
    SETDIJ:  cpu time    0.0022: real time    0.0022
     EDDAV:  cpu time    0.0148: real time    0.0148
       DOS:  cpu time    0.0002: real time    0.0002
    CHARGE:  cpu time    0.0021: real time    0.0021
    MIXING:  cpu time    0.0006: real time    0.0006
    --------------------------------------------
      LOOP:  cpu time    0.0219: real time    0.0220

 eigenvalue-minimisations  :    64
 total energy-change (2. order) :-0.2276427E+01  (-0.1076085E+00)
 number of electron      52.0000240 magnetization 
 augmentation part       15.1996832 magnetization 

 Broyden mixing:
  rms(total) = 0.43914E+01    rms(broyden)= 0.43912E+01
  rms(prec ) = 0.68326E+01
  weight for this iteration     100.00

 eigenvalues of (default mixing * dielectric matrix)
  average eigenvalue GAMMA=   0.8588
  2.4976  2.1375  1.0991  1.0991  1.0819  1.0819  1.1316  0.9547  0.7788  0.6272
  0.6272  0.5430  0.3300  0.1813  0.1813  0.2245  0.0226

 Free energy of the ion-electron system (eV)
  ---------------------------------------------------
  alpha Z        PSCENC =       594.32374129
  Ewald energy   TEWEN  =     -6542.72582504
  -Hartree energ DENC   =      -800.44084437
  -exchange      EXHF   =         0.00000000
  -V(xc)+E(xc)   XCENC  =       143.36295096
  PAW double counting   =     15065.37468110   -14954.81037089
  entropy T*S    EENTRO =        -0.08040525
  eigenvalues    EBANDS =       201.89439473
  atomic energy  EATOM  =      6314.32970236
  Solvation  Ediel_sol  =         0.00000000
  ---------------------------------------------------
  free energy    TOTEN  =        21.22802491 eV

  energy without entropy =       21.30843015  energy(sigma->0) =       21.25482666


--------------------------------------------------------------------------------------------------------




--------------------------------------- Iteration      1(  19)  ---------------------------------------


    POTLOK:  cpu time    0.0020: real time    0.0022
    SETDIJ:  cpu time    0.0024: real time    0.0024
     EDDAV:  cpu time    0.0214: real time    0.0214
       DOS:  cpu time    0.0002: real time    0.0002
    CHARGE:  cpu time    0.0020: real time    0.0020
    MIXING:  cpu time    0.0005: real time    0.0005
    --------------------------------------------
      LOOP:  cpu time    0.0285: real time    0.0287

 eigenvalue-minimisations  :    96
 total energy-change (2. order) :-0.1362173E+01  (-0.2151817E-01)
 number of electron      52.0000236 magnetization 
 augmentation part       15.1237724 magnetization 

 Broyden mixing:
  rms(total) = 0.44015E+01    rms(broyden)= 0.44015E+01
  rms(prec ) = 0.71809E+01
  weight for this iteration     100.00

 eigenvalues of (default mixing * dielectric matrix)
  average eigenvalue GAMMA=   0.9528
  2.0781  2.0781  2.4919  2.0322  1.0571  1.0571  1.1637  0.9665  0.7028  0.7028
  0.7379  0.5743  0.5743  0.3247  0.1813  0.1813  0.2238  0.0226

 Free energy of the ion-electron system (eV)
  ---------------------------------------------------
  alpha Z        PSCENC =       594.32374129
  Ewald energy   TEWEN  =     -6542.72582504
  -Hartree energ DENC   =      -808.33878759
  -exchange      EXHF   =         0.00000000
  -V(xc)+E(xc)   XCENC  =       143.66386921
  PAW double counting   =     15444.18255437   -15331.89204710
  entropy T*S    EENTRO =        -0.08523993
  eigenvalues    EBANDS =       206.40788421
  atomic energy  EATOM  =      6314.32970236
  Solvation  Ediel_sol  =         0.00000000
  ---------------------------------------------------
  free energy    TOTEN  =        19.86585179 eV

  energy without entropy =       19.95109173  energy(sigma->0) =       19.89426510


--------------------------------------------------------------------------------------------------------




--------------------------------------- Iteration      1(  20)  ---------------------------------------


    POTLOK:  cpu time    0.0019: real time    0.0021
    SETDIJ:  cpu time    0.0023: real time    0.0023
     EDDAV:  cpu time    0.0300: real time    0.0300
       DOS:  cpu time    0.0002: real time    0.0002
    CHARGE:  cpu time    0.0033: real time    0.0033
    MIXING:  cpu time    0.0007: real time    0.0007
    --------------------------------------------
      LOOP:  cpu time    0.0384: real time    0.0386

 eigenvalue-minimisations  :    96
 total energy-change (2. order) :-0.3307724E-01  (-0.5883271E-03)
 number of electron      52.0000236 magnetization 
 augmentation part       15.1234814 magnetization 

 Broyden mixing:
  rms(total) = 0.43947E+01    rms(broyden)= 0.43947E+01
  rms(prec ) = 0.71780E+01
  weight for this iteration     100.00

 eigenvalues of (default mixing * dielectric matrix)
  average eigenvalue GAMMA=   0.9243
  2.1332  2.1332  2.4911  2.1854  1.0544  1.0544  1.1095  0.9553  0.7429  0.6277
  0.6277  0.5296  0.5296  0.4497  0.1813  0.1813  0.3294  0.2240  0.0226

 Free energy of the ion-electron system (eV)
  ---------------------------------------------------
  alpha Z        PSCENC =       594.32374129
  Ewald energy   TEWEN  =     -6542.72582504
  -Hartree energ DENC   =      -808.54860806
  -exchange      EXHF   =         0.00000000
  -V(xc)+E(xc)   XCENC  =       143.67282616
  PAW double counting   =     15445.03678507   -15332.70174165
  entropy T*S    EENTRO =        -0.08426870
  eigenvalues    EBANDS =       206.53016312
  atomic energy  EATOM  =      6314.32970236
  Solvation  Ediel_sol  =         0.00000000
  ---------------------------------------------------
  free energy    TOTEN  =        19.83277455 eV

  energy without entropy =       19.91704325  energy(sigma->0) =       19.86086412


--------------------------------------------------------------------------------------------------------




--------------------------------------- Iteration      1(  21)  ---------------------------------------


    POTLOK:  cpu time    0.0021: real time    0.0023
    SETDIJ:  cpu time    0.0024: real time    0.0024
     EDDAV:  cpu time    0.0226: real time    0.0226
       DOS:  cpu time    0.0002: real time    0.0002
    CHARGE:  cpu time    0.0019: real time    0.0019
    MIXING:  cpu time    0.0008: real time    0.0008
    --------------------------------------------
      LOOP:  cpu time    0.0301: real time    0.0302

 eigenvalue-minimisations  :    96
 total energy-change (2. order) :-0.2184714E+00  (-0.8999609E-03)
 number of electron      52.0000229 magnetization 
 augmentation part       15.0645197 magnetization 

 Broyden mixing:
  rms(total) = 0.43807E+01    rms(broyden)= 0.43807E+01
  rms(prec ) = 0.72846E+01
  weight for this iteration     100.00

 eigenvalues of (default mixing * dielectric matrix)
  average eigenvalue GAMMA=   0.9191
  2.4927  2.0540  2.0540  2.0942  1.0798  1.0798  1.1024  0.8190  0.8190  0.9708
  0.7752  0.6328  0.6328  0.5646  0.3276  0.1813  0.1813  0.2238  0.2735  0.0226

 Free energy of the ion-electron system (eV)
  ---------------------------------------------------
  alpha Z        PSCENC =       594.32374129
  Ewald energy   TEWEN  =     -6542.72582504
  -Hartree energ DENC   =      -809.86282311
  -exchange      EXHF   =         0.00000000
  -V(xc)+E(xc)   XCENC  =       143.72066505
  PAW double counting   =     15507.59248206   -15394.94449621
  entropy T*S    EENTRO =        -0.09691985
  eigenvalues    EBANDS =       207.27777660
  atomic energy  EATOM  =      6314.32970236
  Solvation  Ediel_sol  =         0.00000000
  ---------------------------------------------------
  free energy    TOTEN  =        19.61430317 eV

  energy without entropy =       19.71122302  energy(sigma->0) =       19.64660978


--------------------------------------------------------------------------------------------------------




--------------------------------------- Iteration      1(  22)  ---------------------------------------


    POTLOK:  cpu time    0.0019: real time    0.0020
    SETDIJ:  cpu time    0.0023: real time    0.0023
     EDDAV:  cpu time    0.0222: real time    0.0222
       DOS:  cpu time    0.0002: real time    0.0002
    CHARGE:  cpu time    0.0020: real time    0.0020
    MIXING:  cpu time    0.0008: real time    0.0008
    --------------------------------------------
      LOOP:  cpu time    0.0293: real time    0.0295

 eigenvalue-minimisations  :    96
 total energy-change (2. order) :-0.2117264E+00  (-0.1042373E-02)
 number of electron      52.0000225 magnetization 
 augmentation part       15.0184557 magnetization 

 Broyden mixing:
  rms(total) = 0.43400E+01    rms(broyden)= 0.43400E+01
  rms(prec ) = 0.73502E+01
  weight for this iteration     100.00

 eigenvalues of (default mixing * dielectric matrix)
  average eigenvalue GAMMA=   1.0010
  2.9339  2.9339  2.5022  2.0178  1.0989  1.0989  0.9351  0.9351  1.1269  0.9744
  0.6946  0.6946  0.7399  0.6039  0.6039  0.3255  0.1813  0.1813  0.2239  0.0226
  0.1936

 Free energy of the ion-electron system (eV)
  ---------------------------------------------------
  alpha Z        PSCENC =       594.32374129
  Ewald energy   TEWEN  =     -6542.72582504
  -Hartree energ DENC   =      -810.65403362
  -exchange      EXHF   =         0.00000000
  -V(xc)+E(xc)   XCENC  =       143.75435204
  PAW double counting   =     15551.19617077   -15438.35287065
  entropy T*S    EENTRO =        -0.10486451
  eigenvalues    EBANDS =       207.63620412
  atomic energy  EATOM  =      6314.32970236
  Solvation  Ediel_sol  =         0.00000000
  ---------------------------------------------------
  free energy    TOTEN  =        19.40257677 eV

  energy without entropy =       19.50744128  energy(sigma->0) =       19.43753161


--------------------------------------------------------------------------------------------------------




--------------------------------------- Iteration      1(  23)  ---------------------------------------


    POTLOK:  cpu time    0.0020: real time    0.0022
    SETDIJ:  cpu time    0.0022: real time    0.0022
[...]

 eigenvalue-minimisations  :    64
 total energy-change (2. order) :-0.1547044E+01  (-0.5339331E+01)
 number of electron      52.0000187 magnetization 
 augmentation part       14.9842781 magnetization 

 Broyden mixing:
  rms(total) = 0.35769E+01    rms(broyden)= 0.35623E+01
  rms(prec ) = 0.55287E+01
  weight for this iteration     100.00

 eigenvalues of (default mixing * dielectric matrix)
  average eigenvalue GAMMA=   1.2397
  5.0852  3.4867  3.4867  2.9514  2.9514  2.4300  2.4300  1.6247  1.6247  1.8958
  1.8958  1.9321  1.9321  0.9323  1.5585  1.3456  1.3456  1.0944  1.0944  0.3844
  0.3844  0.7206  0.7206  0.8984  0.8984  0.9115  0.0435  0.0344  0.0344  0.0297
  0.1075  0.1075  0.4948  0.4948  0.2910  0.6825  0.3967  0.5151  0.5151  0.5660
  0.5000

 Free energy of the ion-electron system (eV)
  ---------------------------------------------------
  alpha Z        PSCENC =       594.32374129
  Ewald energy   TEWEN  =     -6542.72582504
  -Hartree energ DENC   =      -768.51954174
  -exchange      EXHF   =         0.00000000
  -V(xc)+E(xc)   XCENC  =       142.20908011
  PAW double counting   =     14399.83299954   -14296.66526322
  entropy T*S    EENTRO =        -0.18229937
  eigenvalues    EBANDS =       178.51882840
  atomic energy  EATOM  =      6314.32970236
  Solvation  Ediel_sol  =         0.00000000
  ---------------------------------------------------
  free energy    TOTEN  =        21.12142235 eV

  energy without entropy =       21.30372172  energy(sigma->0) =       21.18218880


--------------------------------------------------------------------------------------------------------




--------------------------------------- Iteration      1(  58)  ---------------------------------------


    POTLOK:  cpu time    0.0020: real time    0.0022
    SETDIJ:  cpu time    0.0024: real time    0.0024
     EDDAV:  cpu time    0.0216: real time    0.0216
       DOS:  cpu time    0.0002: real time    0.0002
    CHARGE:  cpu time    0.0024: real time    0.0024
    MIXING:  cpu time    0.0029: real time    0.0029
    --------------------------------------------
      LOOP:  cpu time    0.0316: real time    0.0318

 eigenvalue-minimisations  :    96
 total energy-change (2. order) : 0.1960103E+00  (-0.4708420E-01)
 number of electron      52.0000179 magnetization 
 augmentation part       15.3126452 magnetization 

 Broyden mixing:
  rms(total) = 0.39508E+01    rms(broyden)= 0.39502E+01
  rms(prec ) = 0.58556E+01
  weight for this iteration     100.00

 eigenvalues of (default mixing * dielectric matrix)
  average eigenvalue GAMMA=   1.2405
  3.4121  3.3468  3.3468  3.2377  3.2377  2.2079  2.2079  2.4573  2.4573  2.5009
  1.7544  1.7544  0.8131  1.8428  1.5694  1.2841  1.2841  1.3728  1.1217  1.1217
  0.7774  0.7774  0.5584  0.5584  0.9076  0.8130  0.8130  0.1221  0.1221  0.6247
  0.6247  0.0311  0.1448  0.1448  0.0506  0.0197  0.2046  0.4094  0.5057  0.5057
  0.5523  0.5044

 Free energy of the ion-electron system (eV)
  ---------------------------------------------------
  alpha Z        PSCENC =       594.32374129
  Ewald energy   TEWEN  =     -6542.72582504
  -Hartree energ DENC   =      -766.21788216
  -exchange      EXHF   =         0.00000000
  -V(xc)+E(xc)   XCENC  =       142.11056602
  PAW double counting   =     14364.52753657   -14261.84203116
  entropy T*S    EENTRO =        -0.19234826
  eigenvalues    EBANDS =       177.00397301
  atomic energy  EATOM  =      6314.32970236
  Solvation  Ediel_sol  =         0.00000000
  ---------------------------------------------------
  free energy    TOTEN  =        21.31743265 eV

  energy without entropy =       21.50978091  energy(sigma->0) =       21.38154874


--------------------------------------------------------------------------------------------------------




--------------------------------------- Iteration      1(  59)  ---------------------------------------


    POTLOK:  cpu time    0.0021: real time    0.0022
    SETDIJ:  cpu time    0.0022: real time    0.0022
     EDDAV:  cpu time    0.0172: real time    0.0172
       DOS:  cpu time    0.0002: real time    0.0002
    CHARGE:  cpu time    0.0018: real time    0.0018
    MIXING:  cpu time    0.0020: real time    0.0020
    --------------------------------------------
      LOOP:  cpu time    0.0256: real time    0.0257

 eigenvalue-minimisations  :    80
 total energy-change (2. order) : 0.4265540E+00  (-0.2615917E-02)
 number of electron      52.0000187 magnetization 
 augmentation part       15.2295294 magnetization 

 Broyden mixing:
  rms(total) = 0.37587E+01    rms(broyden)= 0.37586E+01
  rms(prec ) = 0.56433E+01
  weight for this iteration     100.00

 eigenvalues of (default mixing * dielectric matrix)
  average eigenvalue GAMMA=   1.2577
  3.8067  3.8067  2.6359  3.0035  3.0035  1.9188  1.9188  2.5155  2.5155  2.5042
  2.2357  2.2357  1.4005  1.4005  2.0699  1.5905  1.1749  1.1749  1.2764  1.2764
  1.3245  0.1168  0.1953  0.1953  0.6848  0.6848  0.5634  0.5634  0.8330  0.8330
  0.8535  0.0224  0.0177  0.0523  0.1627  0.1627  0.2050  0.5488  0.5488  0.4264
  0.5768  0.5450  0.5014

 Free energy of the ion-electron system (eV)
  ---------------------------------------------------
  alpha Z        PSCENC =       594.32374129
  Ewald energy   TEWEN  =     -6542.72582504
  -Hartree energ DENC   =      -768.70163581
  -exchange      EXHF   =         0.00000000
  -V(xc)+E(xc)   XCENC  =       142.19603542
  PAW double counting   =     14445.24191338   -14341.99367517
  entropy T*S    EENTRO =        -0.22306164
  eigenvalues    EBANDS =       179.29679182
  atomic energy  EATOM  =      6314.32970236
  Solvation  Ediel_sol  =         0.00000000
  ---------------------------------------------------
  free energy    TOTEN  =        21.74398662 eV

  energy without entropy =       21.96704826  energy(sigma->0) =       21.81834050


--------------------------------------------------------------------------------------------------------




--------------------------------------- Iteration      1(  60)  ---------------------------------------


    POTLOK:  cpu time    0.0022: real time    0.0023
    SETDIJ:  cpu time    0.0022: real time    0.0022
     EDDAV:  cpu time    0.0218: real time    0.0218
       DOS:  cpu time    0.0002: real time    0.0002
    --------------------------------------------
      LOOP:  cpu time    0.0263: real time    0.0264

 eigenvalue-minimisations  :    96
 total energy-change (2. order) :-0.4561982E-01  (-0.1478028E-02)
 number of electron      52.0000187 magnetization 
 augmentation part       15.2295294 magnetization 

 Free energy of the ion-electron system (eV)
  ---------------------------------------------------
  alpha Z        PSCENC =       594.32374129
  Ewald energy   TEWEN  =     -6542.72582504
  -Hartree energ DENC   =      -771.41021082
  -exchange      EXHF   =         0.00000000
  -V(xc)+E(xc)   XCENC  =       142.30093303
  PAW double counting   =     14536.12731338   -14432.21128593
  entropy T*S    EENTRO =        -0.23928929
  eigenvalues    EBANDS =       181.20328780
  atomic energy  EATOM  =      6314.32970236
  Solvation  Ediel_sol  =         0.00000000
  ---------------------------------------------------
  free energy    TOTEN  =        21.69836680 eV

  energy without entropy =       21.93765608  energy(sigma->0) =       21.77812989


--------------------------------------------------------------------------------------------------------




 average (electrostatic) potential at core
  the test charge radii are     0.9952  0.9952  1.2059
  (the norm of the test charge is              1.0000)
       1 -83.2469       2 -80.1739       3 -55.0417       4 -55.0417
 
 
 
 E-fermi :  21.1806     XC(G=0): -15.8837     alpha+bet :-23.9247


 k-point     1 :       0.0000    0.0000    0.0000
  band No.  band energies     occupation 
      1     -35.6957      2.00000
      2     -35.5229      2.00000
      3     -35.5229      2.00000
      4     -32.9577      2.00000
      5     -32.9577      2.00000
      6     -32.4846      2.00000
      7       5.1045      2.00000
      8       7.5475      2.00000
      9       7.9268      2.00000
     10       8.4608      2.00000
     11       8.6117      2.00000
     12       8.6721      2.00000
     13       8.6721      2.00000
     14      13.3511      2.00000
     15      13.5941      2.00000
     16      13.5941      2.00000
     17      17.1409      2.00000
     18      17.1524      2.00000
     19      20.1655      2.00000
     20      20.5305      2.00004
     21      20.5644      2.00012
     22      20.6099      2.00041
     23      20.6099      2.00041
     24      21.0993      1.62927
     25      21.1389      1.34484
     26      21.1389      1.34484
     27      21.1918      0.90605
     28      21.2076      0.77401
     29      21.9049     -0.00000
     30      21.9049     -0.00000
     31      32.0935      0.00000
     32      32.0940      0.00000


--------------------------------------------------------------------------------------------------------


 soft charge-density along one line, spin component           1
         0         1         2         3         4         5         6         7         8         9
 total charge-density along one line
 
 pseudopotential strength for first ion, spin component:           1
-29.358  -0.000  -0.000   8.468   0.000   0.000  -0.000  -0.000
 -0.000 -29.455  -0.000   0.000   8.557   0.000   0.000  -0.000
 -0.000  -0.000 -29.358   0.000   0.000   8.468  -0.000   0.000
  8.468   0.000   0.000  17.210  -0.000  -0.000   0.000   0.000
  0.000   8.557   0.000  -0.000  17.173  -0.000  -0.000   0.000
  0.000   0.000   8.468  -0.000  -0.000  17.210   0.000  -0.000
 -0.000   0.000  -0.000   0.000  -0.000   0.000  -2.211   0.000
 -0.000  -0.000   0.000   0.000   0.000  -0.000   0.000  -2.256
  0.000  -0.000   0.000  -0.000   0.000  -0.000   0.000  -0.000
  0.000  -0.000  -0.000  -0.000   0.000   0.000  -0.000  -0.000
  0.000  -0.000  -0.000  -0.000   0.000   0.000   0.000   0.000
 -0.000   0.000  -0.000   0.000  -0.000   0.000  -2.258   0.000
 -0.000  -0.000   0.000   0.000   0.000  -0.000   0.000  -2.309
  0.000  -0.000   0.000  -0.000   0.000  -0.000   0.000  -0.000
  0.000  -0.000  -0.000  -0.000   0.000   0.000  -0.000  -0.000
  0.000  -0.000  -0.000  -0.000   0.000   0.000   0.000   0.000
  0.000   0.000   0.000   0.000   0.000   0.000   0.000   0.000
 -0.000  -0.000  -0.000  -0.000  -0.000  -0.000  -0.000  -0.000
 total augmentation occupancy for first ion, spin component:           1
  2.002   0.000   0.000  -0.020   0.000  -0.000   0.000   0.000   0.000   0.000   0.000   0.000   0.000   0.000   0.000   0.000
  0.000   2.000   0.000   0.000  -0.009   0.000   0.000   0.000   0.000   0.000   0.000   0.000   0.000   0.000   0.000   0.000
  0.000   0.000   2.002   0.000  -0.000  -0.020   0.000   0.000   0.000   0.000   0.000   0.000   0.000   0.000   0.000   0.000
 -0.020   0.000   0.000   0.139   0.000   0.000   0.000   0.000   0.000   0.000   0.000   0.000   0.000   0.000   0.000   0.000
  0.000  -0.009  -0.000   0.000   0.083   0.000   0.000   0.000   0.000   0.000   0.000   0.000   0.000   0.000   0.000   0.000
 -0.000   0.000  -0.020   0.000   0.000   0.139   0.000   0.000   0.000   0.000   0.000   0.000   0.000   0.000   0.000   0.000
  0.000   0.000   0.000   0.000   0.000   0.000  27.506   0.000   0.000   0.000  -0.000 -25.088  -0.000   0.000   0.000  -0.000
  0.000   0.000   0.000   0.000   0.000   0.000   0.000  27.941  -0.000   0.000   0.000   0.000 -25.784  -0.000   0.000  -0.000
  0.000   0.000   0.000   0.000   0.000   0.000   0.000  -0.000  23.375  -0.000   0.000   0.000   0.000 -20.764   0.000   0.000
  0.000   0.000   0.000   0.000   0.000   0.000   0.000   0.000  -0.000  27.941   0.000   0.000   0.000   0.000 -25.784   0.000
  0.000   0.000   0.000   0.000   0.000   0.000  -0.000   0.000   0.000  -0.000  23.771   0.000   0.000   0.000   0.000 -21.135
  0.000   0.000   0.000   0.000   0.000   0.000 -25.088   0.000   0.000   0.000   0.000  24.712  -0.000   0.000  -0.000  -0.000
  0.000   0.000   0.000   0.000   0.000   0.000  -0.000 -25.784   0.000   0.000   0.000  -0.000  25.691   0.000   0.000   0.000
  0.000   0.000   0.000   0.000   0.000   0.000   0.000  -0.000 -20.764   0.000   0.000   0.000   0.000  20.204   0.000   0.000
  0.000   0.000   0.000   0.000   0.000   0.000   0.000   0.000   0.000 -25.784   0.000  -0.000   0.000   0.000  25.691   0.000
  0.000   0.000   0.000   0.000   0.000   0.000  -0.000  -0.000   0.000   0.000 -21.135  -0.000  -0.000   0.000  -0.000  20.556
  0.000   0.000   0.000   0.000   0.000   0.000   0.000  -0.000  -0.057   0.000   0.000   0.000  -0.000   0.045   0.000   0.000
  0.000   0.000   0.000   0.000   0.000   0.000   0.000   0.000   0.008  -0.000   0.000   0.000  -0.000  -0.019   0.000   0.000


------------------------ aborting loop EDIFF was not reached (unconverged)  ----------------------------


 -----------------------------------------------------------------------------
|                                                                             |
|           W    W    AA    RRRRR   N    N  II  N    N   GGGG   !!!           |
|           W    W   A  A   R    R  NN   N  II  NN   N  G    G  !!!           |
|           W    W  A    A  R    R  N N  N  II  N N  N  G       !!!           |
|           W WW W  AAAAAA  RRRRR   N  N N  II  N  N N  G  GGG   !            |
|           WW  WW  A    A  R   R   N   NN  II  N   NN  G    G                |
|           W    W  A    A  R    R  N    N  II  N    N   GGGG   !!!           |
|                                                                             |
|     The electronic self-consistency was not achieved in the given           |
|     number of steps (NELM). The forces and other quantities evaluated       |
|     might not be reliable so examine the results carefully. If you find     |
|     spurious results, we suggest increasing NELM, if you were close to      |
|     convergence or switching to a different ALGO or adjusting the           |
|     density mixing parameters otherwise.                                    |
|                                                                             |
 -----------------------------------------------------------------------------

    CHARGE:  cpu time    0.0020: real time    0.0020
    FORLOC:  cpu time    0.0001: real time    0.0001
    FORNL :  cpu time    0.0027: real time    0.0027
    STRESS:  cpu time    0.0084: real time    0.0084
    FORCOR:  cpu time    0.0020: real time    0.0020
    FORHAR:  cpu time    0.0006: real time    0.0006
    MIXING:  cpu time    0.0017: real time    0.0017
    OFIELD:  cpu time    0.0001: real time    0.0001

  FORCE on cell =-STRESS in cart. coord.  units (eV):
  Direction    XX          YY          ZZ          XY          YZ          ZX
  --------------------------------------------------------------------------------------
  Alpha Z   594.32374   594.32374   594.32374
  Ewald   -2111.28273 -2111.28273 -2320.16312    -0.00000    -0.00000     0.00000
  Hartree   347.79441   347.79441   156.03318    -0.00000    -0.00000    -0.00000
  E(xc)    -270.90561  -270.90561  -270.70789    -0.00000    -0.00000    -0.00000
  Local     267.95711   267.95711   714.38135    -0.00000     0.00000     0.00000
  n-local    -8.89382    -8.89383   -18.70855    -0.00000    -0.00000    -0.00000
  augment   257.33570   257.33570   256.86698    -0.00000     0.00000     0.00000
  Kinetic  1069.74047  1069.74047  1039.69291    -0.00000    -0.00000    -0.00000
  Fock        0.00000     0.00000     0.00000     0.00000     0.00000     0.00000
  -------------------------------------------------------------------------------------
  Total     146.06927   146.06927   151.71861     0.00000    -0.00000    -0.00000
  in kB    5458.39939  5458.39939  5669.50708     0.00000    -0.00000    -0.00000
  external pressure =     5528.77 kB  Pullay stress =        0.00 kB


 VOLUME and BASIS-vectors are now :
 -----------------------------------------------------------------------------
  energy-cutoff  :      294.61
  volume of cell :       42.88
      direct lattice vectors                 reciprocal lattice vectors
     3.500000000  0.000000000  0.000000000     0.285714286  0.000000000  0.000000000
     0.000000000  3.500000000  0.000000000     0.000000000  0.285714286  0.000000000
     0.000000000  0.000000000  3.500000000     0.000000000  0.000000000  0.285714286

  length of vectors
     3.500000000  3.500000000  3.500000000     0.285714286  0.285714286  0.285714286


 FORCES acting on ions
    electron-ion (+dipol)            ewald-force                    non-local-force                 convergence-correction
 -----------------------------------------------------------------------------------------------
   0.927E-16 -.337E-15 -.490E-15   0.359E-13 -.101E-14 0.133E-14   0.000E+00 0.000E+00 0.000E+00   -.498E-12 -.309E-12 -.809E-14
   0.223E-12 0.224E-12 -.285E-11   -.124E-13 0.394E-13 0.164E-14   0.000E+00 0.000E+00 0.000E+00   0.208E-12 0.948E-13 -.177E-12
   -.513E-15 0.403E-13 0.278E-13   -.192E-13 -.164E-13 -.324E-15   0.000E+00 0.000E+00 0.000E+00   -.688E-13 0.150E-12 0.214E-13
   0.377E-13 0.130E-14 0.288E-12   0.244E-14 -.233E-13 -.160E-15   0.000E+00 0.000E+00 0.000E+00   0.135E-13 0.129E-12 -.166E-13
 -----------------------------------------------------------------------------------------------
   0.260E-12 0.265E-12 -.254E-11   0.677E-14 -.136E-14 0.248E-14   0.000E+00 0.000E+00 0.000E+00   -.345E-12 0.652E-13 -.180E-12
 
 
 POSITION                                       TOTAL-FORCE (eV/Angst)
 -----------------------------------------------------------------------------------
      0.00000      0.00000      0.00000         0.000000      0.000000      0.000000
      1.75000      1.75000      0.00000         0.000000      0.000000      0.000000
      0.00000      1.75000      1.75000         0.000000      0.000000      0.000000
      1.75000      0.00000      1.75000         0.000000      0.000000      0.000000
 -----------------------------------------------------------------------------------
    total drift:                               -0.000000      0.000000     -0.000000


--------------------------------------------------------------------------------------------------------



  FREE ENERGIE OF THE ION-ELECTRON SYSTEM (eV)
  ---------------------------------------------------
  free  energy   TOTEN  =        21.69836680 eV

  energy  without entropy=       21.93765608  energy(sigma->0) =       21.77812989
 


--------------------------------------------------------------------------------------------------------


    POTLOK:  cpu time    0.0046: real time    0.0046


--------------------------------------------------------------------------------------------------------


 writing wavefunctions
     LOOP+:  cpu time    1.7004: real time    1.7151
    4ORBIT:  cpu time    0.0000: real time    0.0000

 total amount of memory used by VASP MPI-rank0    30707. kBytes
=======================================================================

   base      :      30000. kBytes
   nonl-proj :        230. kBytes
   fftplans  :         93. kBytes
   grid      :        305. kBytes
   one-center:         62. kBytes
   wavefun   :         17. kBytes
 
  
  
 General timing and accounting informations for this job:
 ========================================================
  
                  Total CPU time used (sec):        2.039
                            User time (sec):        1.978
                          System time (sec):        0.061
                         Elapsed time (sec):        2.324
  
                   Maximum memory used (kb):       74360.
                   Average memory used (kb):           0.
  
                          Minor page faults:         6379
                          Major page faults:          570
                 Voluntary context switches:           78
