<?xml version="1.0" encoding="ISO-8859-1"?>
<modeling>
 <generator>
  <i name="program" type="string">vasp </i>
  <i name="version" type="string">6.1.2  </i>
  <i name="subversion" type="string">22Jul20 (build Jul 11 2022 11:43:44) complex                          parallel </i>
  <i name="platform" type="string">LinuxIFC </i>
  <i name="date" type="string">2022 08 17 </i>
  <i name="time" type="string">15:33:38 </i>
 </generator>
 <incar>
  <i type="string" name="GGA"> PE</i>
 </incar>
 <structure name="primitive_cell" >
  <crystal>
   <varray name="basis" >
    <v>       3.50000000       0.00000000       0.00000000 </v>
    <v>       0.00000000       3.50000000       0.00000000 </v>
    <v>       0.00000000       0.00000000       3.50000000 </v>
   </varray>
   <i name="volume">     42.87500000 </i>
   <varray name="rec_basis" >
    <v>       0.28571429       0.00000000       0.00000000 </v>
    <v>       0.00000000       0.28571429       0.00000000 </v>
    <v>       0.00000000       0.00000000       0.28571429 </v>
   </varray>
  </crystal>
  <varray name="positions" >
   <v>       0.00000000       0.00000000       0.00000000 </v>
   <v>       0.50000000       0.50000000       0.00000000 </v>
   <v>       0.00000000       0.50000000       0.50000000 </v>
   <v>       0.50000000       0.00000000       0.50000000 </v>
  </varray>
 </structure>
 <varray name="primitive_index" >
  <v type="int" >        1 </v>
  <v type="int" >        2 </v>
  <v type="int" >        3 </v>
  <v type="int" >        4 </v>
 </varray>
 <kpoints>
  <generation param="Monkhorst-Pack">
   <v type="int" name="divisions">       1        1        1 </v>
   <v name="usershift">      0.00000000       0.00000000       0.00000000 </v>
   <v name="genvec1">      1.00000000       0.00000000       0.00000000 </v>
   <v name="genvec2">      0.00000000       1.00000000       0.00000000 </v>
   <v name="genvec3">      0.00000000       0.00000000       1.00000000 </v>
   <v name="shift">      0.00000000       0.00000000       0.00000000 </v>
  </generation>
  <varray name="kpointlist" >
   <v>       0.00000000       0.00000000       0.00000000 </v>
  </varray>
  <varray name="weights" >
   <v>       1.00000000 </v>
  </varray>
 </kpoints>
 <parameters>
  <separator name="general" >
   <i type="string" name="SYSTEM">unknown system</i>
   <i type="logical" name="LCOMPAT"> F  </i>
  </separator>
  <separator name="electronic" >
   <i type="string" name="PREC">normal</i>
   <i name="ENMAX">    294.60700000</i>
   <i name="ENAUG">    527.01400000</i>
   <i name="EDIFF">      0.00010000</i>
   <i type="int" name="IALGO">    38</i>
   <i type="int" name="IWAVPR">    10</i>
   <i type="int" name="NBANDS">    32</i>
   <i type="int" name="NBANDSLOW">    -1</i>
   <i type="int" name="NBANDSHIGH">    -1</i>
   <i name="NELECT">     52.00000000</i>
   <i type="int" name="TURBO">     0</i>
   <i type="int" name="IRESTART">     0</i>
   <i type="int" name="NREBOOT">     0</i>
   <i type="int" name="NMIN">     0</i>
   <i name="EREF">      0.00000000</i>
   <separator name="electronic smearing" >
    <i type="int" name="ISMEAR">     1</i>
    <i name="SIGMA">      0.20000000</i>
    <i name="KSPACING">      0.50000000</i>
    <i type="logical" name="KGAMMA"> T  </i>
    <i type="logical" name="KBLOWUP"> T  </i>
   </separator>
   <separator name="electronic projectors" >
    <i type="logical" name="LREAL"> F  </i>
    <v name="ROPT">      0.00000000      0.00000000      0.00000000</v>
    <i type="int" name="LMAXPAW">  -100</i>
    <i type="int" name="LMAXMIX">     2</i>
    <i type="logical" name="NLSPLINE"> F  </i>
   </separator>
   <separator name="electronic startup" >
    <i type="int" name="ISTART">     1</i>
    <i type="int" name="ICHARG">     0</i>
    <i type="int" name="INIWAV">     1</i>
   </separator>
   <separator name="electronic spin" >
    <i type="int" name="ISPIN">     1</i>
    <i type="logical" name="LNONCOLLINEAR"> F  </i>
    <v name="MAGMOM">      1.00000000      1.00000000      1.00000000      1.00000000</v>
    <i name="NUPDOWN">     -1.00000000</i>
    <i type="logical" name="LSORBIT"> F  </i>
    <v name="SAXIS">      0.00000000      0.00000000      1.00000000</v>
    <i type="logical" name="LSPIRAL"> F  </i>
    <v name="QSPIRAL">      0.00000000      0.00000000      0.00000000</v>
    <i type="logical" name="LZEROZ"> F  </i>
   </separator>
   <separator name="electronic exchange-correlation" >
    <i type="logical" name="LASPH"> F  </i>
    <i type="logical" name="LMETAGGA"> F  </i>
   </separator>
   <separator name="electronic convergence" >
    <i type="int" name="NELM">    60</i>
    <i type="int" name="NELMDL">     0</i>
    <i type="int" name="NELMIN">     2</i>
    <i name="ENINI">    294.60700000</i>
    <separator name="electronic convergence detail" >
     <i type="logical" name="LDIAG"> T  </i>
     <i type="logical" name="LSUBROT"> F  </i>
     <i name="WEIMIN">      0.00000000</i>
     <i name="EBREAK">      0.00000078</i>
     <i name="DEPER">      0.30000000</i>
     <i type="int" name="NRMM">     4</i>
     <i name="TIME">      0.40000000</i>
    </separator>
   </separator>
   <separator name="electronic mixer" >
    <i name="AMIX">      0.40000000</i>
    <i name="BMIX">      1.00000000</i>
    <i name="AMIN">      0.10000000</i>
    <i name="AMIX_MAG">      1.60000000</i>
    <i name="BMIX_MAG">      1.00000000</i>
    <separator name="electronic mixer details" >
     <i type="int" name="IMIX">     4</i>
     <i type="logical" name="MIXFIRST"> F  </i>
     <i type="int" name="MAXMIX">   -45</i>
     <i name="WC">    100.00000000</i>
     <i type="int" name="INIMIX">     1</i>
     <i type="int" name="MIXPRE">     1</i>
     <i type="int" name="MREMOVE">     5</i>
    </separator>
   </separator>
   <separator name="electronic dipolcorrection" >
    <i type="logical" name="LDIPOL"> F  </i>
    <i type="logical" name="LMONO"> F  </i>
    <i type="int" name="IDIPOL">     0</i>
    <i name="EPSILON">      1.00000000</i>
    <v name="DIPOL">   -100.00000000   -100.00000000   -100.00000000</v>
    <i name="EFIELD">      0.00000000</i>
   </separator>
  </separator>
  <separator name="grids" >
   <i type="int" name="NGX">    16</i>
   <i type="int" name="NGY">    16</i>
   <i type="int" name="NGZ">    16</i>
   <i type="int" name="NGXF">    32</i>
   <i type="int" name="NGYF">    32</i>
   <i type="int" name="NGZF">    32</i>
   <i type="logical" name="ADDGRID"> F  </i>
  </separator>
  <separator name="ionic" >
   <i type="int" name="NSW">     0</i>
   <i type="int" name="IBRION">    -1</i>
   <i type="int" name="MDALGO">     0</i>
   <i type="int" name="ISIF">     2</i>
   <i name="PSTRESS">      0.00000000</i>
   <i name="EDIFFG">      0.00100000</i>
   <i type="int" name="NFREE">     0</i>
   <i name="POTIM">      0.50000000</i>
   <i name="SMASS">     -3.00000000</i>
   <i name="SCALEE">      1.00000000</i>
  </separator>
  <separator name="ionic md" >
   <i name="TEBEG">      0.00010000</i>
   <i name="TEEND">      0.00010000</i>
   <i type="int" name="NBLOCK">     1</i>
   <i type="int" name="KBLOCK">     1</i>
   <i type="int" name="NPACO">   256</i>
   <i name="APACO">     16.00000000</i>
  </separator>
  <separator name="symmetry" >
   <i type="int" name="ISYM">     2</i>
   <i name="SYMPREC">      0.00001000</i>
  </separator>
  <separator name="dos" >
   <i type="int" name="LORBIT">     0</i>
   <v name="RWIGS">     -1.00000000     -1.00000000     -1.00000000</v>
   <i type="int" name="NEDOS">   301</i>
   <i name="EMIN">     10.00000000</i>
   <i name="EMAX">    -10.00000000</i>
   <i name="EFERMI">      0.00000000</i>
  </separator>
  <separator name="writing" >
   <i type="int" name="NWRITE">     2</i>
   <i type="logical" name="LWAVE"> T  </i>
   <i type="logical" name="LDOWNSAMPLE"> F  </i>
   <i type="logical" name="LCHARG"> T  </i>
   <i type="logical" name="LPARD"> F  </i>
   <i type="logical" name="LVTOT"> F  </i>
   <i type="logical" name="LVHAR"> F  </i>
   <i type="logical" name="LELF"> F  </i>
   <i type="logical" name="LOPTICS"> F  </i>
   <v name="STM">      0.00000000      0.00000000      0.00000000      0.00000000      0.00000000      0.00000000      0.00000000</v>
  </separator>
  <separator name="performance" >
   <i type="int" name="NPAR">    16</i>
   <i type="int" name="NSIM">     4</i>
   <i type="int" name="NBLK">    -1</i>
   <i type="logical" name="LPLANE"> T  </i>
   <i type="logical" name="LSCALAPACK"> T  </i>
   <i type="logical" name="LSCAAWARE"> F  </i>
   <i type="logical" name="LSCALU"> F  </i>
   <i type="logical" name="LASYNC"> F  </i>
   <i type="logical" name="LORBITALREAL"> F  </i>
  </separator>
  <separator name="miscellaneous" >
   <i type="int" name="IDIOT">     3</i>
   <i type="int" name="PHON_NSTRUCT">    -1</i>
   <i type="logical" name="LMUSIC"> F  </i>
   <v name="POMASS">    195.08000000    195.08000000    195.08000000</v>
   <v name="DARWINR">      0.00000000      0.00000000      0.00000000</v>
   <v name="DARWINV">      1.00000000      1.00000000      1.00000000</v>
   <i type="logical" name="LCORR"> T  </i>
  </separator>
  <i type="logical" name="GGA_COMPAT"> T  </i>
  <i type="logical" name="LBERRY"> F  </i>
  <i type="int" name="ICORELEVEL">     0</i>
  <i type="logical" name="LDAU"> F  </i>
  <i type="int" name="I_CONSTRAINED_M">     0</i>
  <separator name="electronic exchange-correlation" >
   <i type="string" name="GGA">PE</i>
   <i type="int" name="VOSKOWN">     0</i>
   <i type="logical" name="LHFCALC"> F  </i>
   <i type="string" name="PRECFOCK"></i>
   <i type="logical" name="LSYMGRAD"> F  </i>
   <i type="logical" name="LHFONE"> F  </i>
   <i type="logical" name="LRHFCALC"> F  </i>
   <i type="logical" name="LTHOMAS"> F  </i>
   <i type="logical" name="LMODELHF"> F  </i>
   <i type="logical" name="LFOCKACE"> F  </i>
   <i name="ENCUT4O">     -1.00000000</i>
   <i type="int" name="EXXOEP">     0</i>
   <i type="int" name="FOURORBIT">     0</i>
   <i name="AEXX">      0.00000000</i>
   <i name="HFALPHA">      0.00000000</i>
   <i name="MCALPHA">      0.00000000</i>
   <i name="ALDAX">      1.00000000</i>
   <i name="AGGAX">      1.00000000</i>
   <i name="ALDAC">      1.00000000</i>
   <i name="AGGAC">      1.00000000</i>
   <i type="int" name="NKREDX">     1</i>
   <i type="int" name="NKREDY">     1</i>
   <i type="int" name="NKREDZ">     1</i>
   <i type="logical" name="SHIFTRED"> F  </i>
   <i type="logical" name="ODDONLY"> F  </i>
   <i type="logical" name="EVENONLY"> F  </i>
   <i type="int" name="LMAXFOCK">     0</i>
   <i type="int" name="NMAXFOCKAE">     0</i>
   <i type="logical" name="LFOCKAEDFT"> F  </i>
   <i name="HFSCREEN">      0.00000000</i>
   <i name="HFSCREENC">      0.00000000</i>
   <i type="int" name="NBANDSGWLOW">     0</i>
  </separator>
  <separator name="vdW DFT" >
   <i type="logical" name="LUSE_VDW"> F  </i>
   <i name="Zab_VDW">     -0.84910000</i>
   <i name="PARAM1">      0.12340000</i>
   <i name="PARAM2">      1.00000000</i>
   <i name="PARAM3">      0.00000000</i>
  </separator>
  <separator name="model GW" >
   <i type="int" name="MODEL_GW">     0</i>
   <i name="MODEL_EPS0">      6.43125000</i>
   <i name="MODEL_ALPHA">      1.00000000</i>
  </separator>
  <separator name="linear response parameters" >
   <i type="logical" name="LEPSILON"> F  </i>
   <i type="logical" name="LRPA"> F  </i>
   <i type="logical" name="LNABLA"> F  </i>
   <i type="logical" name="LVEL"> F  </i>
   <i type="int" name="KINTER">     0</i>
   <i name="CSHIFT">      0.10000000</i>
   <i name="OMEGAMAX">     -1.00000000</i>
   <i name="DEG_THRESHOLD">      0.00200000</i>
   <i name="RTIME">     -0.10000000</i>
   <i name="WPLASMAI">      0.00000000</i>
   <v name="DFIELD">      0.00000000      0.00000000      0.00000000</v>
   <v name="WPLASMA">      0.00000000      0.00000000      0.00000000      0.00000000      0.00000000      0.00000000      0.00000000      0.00000000      0.00000000</v>
  </separator>
  <separator name="orbital magnetization" >
   <i type="logical" name="NUCIND"> F  </i>
   <v name="MAGPOS">      0.00000000      0.00000000      0.00000000</v>
   <i type="logical" name="LNICSALL"> T  </i>
   <i type="logical" name="ORBITALMAG"> F  </i>
   <i type="logical" name="LMAGBLOCH"> F  </i>
   <i type="logical" name="LCHIMAG"> F  </i>
   <i type="logical" name="LGAUGE"> T  </i>
   <i type="int" name="MAGATOM">     0</i>
   <v name="MAGDIPOL">      0.00000000      0.00000000      0.00000000</v>
   <v name="AVECCONST">      0.00000000      0.00000000      0.00000000</v>
  </separator>
  <separator name="response functions" >
   <i type="logical" name="LFINITE_TEMPERATURE"> F  </i>
   <i type="logical" name="LADDER"> F  </i>
   <i type="logical" name="LRPAFORCE"> F  </i>
   <i type="logical" name="LFXC"> F  </i>
   <i type="logical" name="LHARTREE"> T  </i>
   <i type="int" name="IBSE">     0</i>
   <v type="int" name="KPOINT">    -1     0     0     0</v>
   <i type="logical" name="LTCTC"> F  </i>
   <i type="logical" name="LTCTE"> F  </i>
   <i type="logical" name="LTETE"> F  </i>
   <i type="logical" name="LTRIPLET"> F  </i>
   <i type="logical" name="LFXCEPS"> F  </i>
   <i type="logical" name="LFXHEG"> F  </i>
   <i type="int" name="NATURALO">     2</i>
   <i type="logical" name="LHOLEGF"> F  </i>
   <i type="logical" name="L2ORDER"> F  </i>
   <i type="logical" name="LDMP1"> F  </i>
   <i type="logical" name="LMP2LT"> F  </i>
   <i type="logical" name="LSMP2LT"> F  </i>
   <i type="logical" name="LGWLF"> F  </i>
   <i name="ENCUTGW">     -2.00000000</i>
   <i name="ENCUTGWSOFT">     -2.00000000</i>
   <i name="ENCUTLF">     -1.00000000</i>
   <i type="logical" name="LESF_SPLINES"> F  </i>
   <i type="int" name="LMAXMP2">    -1</i>
   <i name="SCISSOR">      0.00000000</i>
   <i type="int" name="NOMEGA">     0</i>
   <i type="int" name="NOMEGAR">     0</i>
   <i type="int" name="NBANDSGW">    -1</i>
   <i type="int" name="NBANDSO">    -1</i>
   <i type="int" name="NBANDSV">    -1</i>
   <i type="int" name="NELM">     1</i>
   <i type="int" name="NELMHF">     1</i>
   <i type="int" name="DIM">     3</i>
   <i type="int" name="IESPILON">     4</i>
   <i type="int" name="ANTIRES">     0</i>
   <i name="OMEGAMAX">    -30.00000000</i>
   <i name="OMEGAMIN">    -30.00000000</i>
   <i name="OMEGATL">   -200.00000000</i>
   <i type="int" name="OMEGAGRID">     0</i>
   <i name="CSHIFT">     -0.10000000</i>
   <i type="logical" name="LSELFENERGY"> F  </i>
   <i type="logical" name="LSPECTRAL"> F  </i>
   <i type="logical" name="LSPECTRALGW"> F  </i>
   <i type="logical" name="LSINGLES"> F  </i>
   <i type="logical" name="LFERMIGW"> F  </i>
   <i type="logical" name="ODDONLYGW"> F  </i>
   <i type="logical" name="EVENONLYGW"> F  </i>
   <i type="int" name="NKREDLFX">     1</i>
   <i type="int" name="NKREDLFY">     1</i>
   <i type="int" name="NKREDLFZ">     1</i>
   <i type="int" name="MAXMEM">  2800</i>
   <i type="int" name="TELESCOPE">     0</i>
   <i type="int" name="NTAUPAR">    -1</i>
   <i type="int" name="NOMEGAPAR">    -1</i>
   <i name="LAMBDA">      1.00000000</i>
  </separator>
  <separator name="External order field" >
   <i name="OFIELD_KAPPA">      0.00000000</i>
   <v name="OFIELD_K">      0.00000000      0.00000000      0.00000000</v>
   <i name="OFIELD_Q6_NEAR">      0.00000000</i>
   <i name="OFIELD_Q6_FAR">      0.00000000</i>
   <i name="OFIELD_A">      0.00000000</i>
  </separator>
 </parameters>
 <atominfo>
  <atoms>       4 </atoms>
  <types>       3 </types>
  <array name="atoms" >
   <dimension dim="1">ion</dimension>
   <field type="string">element</field>
   <field type="int">atomtype</field>
   <set>
    <rc><c>Pt</c><c>   1</c></rc>
    <rc><c>Pt</c><c>   2</c></rc>
    <rc><c>Pt</c><c>   3</c></rc>
    <rc><c>Pt</c><c>   3</c></rc>
   </set>
  </array>
  <array name="atomtypes" >
   <dimension dim="1">type</dimension>
   <field type="int">atomspertype</field>
   <field type="string">element</field>
   <field>mass</field>
   <field>valence</field>
   <field type="string">pseudopotential</field>
   <set>
    <rc><c>   1</c><c>Pt</c><c>    195.08000000</c><c>     16.00000000</c><c>  PAW_PBE Pt_pv 12Dec2005               </c></rc>
    <rc><c>   1</c><c>Pt</c><c>    195.08000000</c><c>     16.00000000</c><c>  PAW_PBE Pt_pv 12Dec2005               </c></rc>
    <rc><c>   2</c><c>Pt</c><c>    195.08000000</c><c>     10.00000000</c><c>  PAW_PBE Pt 04Feb2005                  </c></rc>
   </set>
  </array>
 </atominfo>
 <structure name="initialpos" >
  <crystal>
   <varray name="basis" >
    <v>       3.50000000       0.00000000       0.00000000 </v>
    <v>       0.00000000       3.50000000       0.00000000 </v>
    <v>       0.00000000       0.00000000       3.50000000 </v>
   </varray>
   <i name="volume">     42.87500000 </i>
   <varray name="rec_basis" >
    <v>       0.28571429       0.00000000       0.00000000 </v>
    <v>       0.00000000       0.28571429       0.00000000 </v>
    <v>       0.00000000       0.00000000       0.28571429 </v>
   </varray>
  </crystal>
  <varray name="positions" >
   <v>       0.00000000       0.00000000       0.00000000 </v>
   <v>       0.50000000       0.50000000       0.00000000 </v>
   <v>       0.00000000       0.50000000       0.50000000 </v>
   <v>       0.50000000       0.00000000       0.50000000 </v>
  </varray>
 </structure>
 <calculation>
  <scstep>
   <time name="dav">    0.03    0.03</time>
   <time name="total">    0.04    0.04</time>
   <energy>
    <i name="alphaZ">    594.32374129 </i>
    <i name="ewald">  -6542.72582504 </i>
    <i name="hartreedc">   -344.44925069 </i>
    <i name="XCdc">     94.98500930 </i>
    <i name="pawpsdc">  81873.42447388 </i>
    <i name="pawaedc"> -81825.31968488 </i>
    <i name="eentropy">      0.02255638 </i>
    <i name="bandstr">  -2248.05294284 </i>
    <i name="atom">   6314.32970236 </i>
    <i name="e_fr_energy">  -2083.46222023 </i>
    <i name="e_wo_entrp">  -2083.48477661 </i>
    <i name="e_0_energy">  -2083.46973902 </i>
   </energy>
  </scstep>
  <scstep>
   <time name="dav">    0.03    0.03</time>
   <time name="total">    0.04    0.04</time>
   <energy>
    <i name="e_fr_energy">    -42.29843843 </i>
    <i name="e_wo_entrp">    -42.32552867 </i>
    <i name="e_0_energy">    -42.30746851 </i>
   </energy>
  </scstep>
  <scstep>
   <time name="dav">    0.02    0.02</time>
   <time name="total">    0.03    0.03</time>
   <energy>
    <i name="e_fr_energy">     23.14300789 </i>
    <i name="e_wo_entrp">     23.34922870 </i>
    <i name="e_0_energy">     23.21174816 </i>
   </energy>
  </scstep>
  <scstep>
   <time name="dav">    0.02    0.02</time>
   <time name="total">    0.03    0.03</time>
   <energy>
    <i name="e_fr_energy">    -51.81711616 </i>
    <i name="e_wo_entrp">    -51.83504324 </i>
    <i name="e_0_energy">    -51.82309186 </i>
   </energy>
  </scstep>
  <scstep>
   <time name="dav">    0.01    0.01</time>
   <time name="total">    0.02    0.02</time>
   <energy>
    <i name="e_fr_energy">     11.15413693 </i>
    <i name="e_wo_entrp">     11.18549423 </i>
    <i name="e_0_energy">     11.16458936 </i>
   </energy>
  </scstep>
  <scstep>
   <time name="dav">    0.03    0.03</time>
   <time name="total">    0.03    0.03</time>
   <energy>
    <i name="e_fr_energy">     22.82110099 </i>
    <i name="e_wo_entrp">     22.77094191 </i>
    <i name="e_0_energy">     22.80438130 </i>
   </energy>
  </scstep>
  <scstep>
   <time name="dav">    0.02    0.02</time>
   <time name="total">    0.02    0.02</time>
   <energy>
    <i name="e_fr_energy">     21.53416370 </i>
    <i name="e_wo_entrp">     21.55474772 </i>
    <i name="e_0_energy">     21.54102504 </i>
   </energy>
  </scstep>
  <scstep>
   <time name="dav">    0.02    0.02</time>
   <time name="total">    0.03    0.03</time>
   <energy>
    <i name="e_fr_energy">     24.03128885 </i>
    <i name="e_wo_entrp">     24.06295682 </i>
    <i name="e_0_energy">     24.04184484 </i>
   </energy>
  </scstep>
  <scstep>
   <time name="dav">    0.02    0.02</time>
   <time name="total">    0.02    0.02</time>
   <energy>
    <i name="e_fr_energy">     23.64732073 </i>
    <i name="e_wo_entrp">     23.86087716 </i>
    <i name="e_0_energy">     23.71850621 </i>
   </energy>
  </scstep>
  <scstep>
   <time name="dav">    0.02    0.02</time>
   <time name="total">    0.03    0.03</time>
   <energy>
    <i name="e_fr_energy">     23.95671911 </i>
    <i name="e_wo_entrp">     24.25562762 </i>
    <i name="e_0_energy">     24.05635528 </i>
   </energy>
  </scstep>
  <scstep>
   <time name="dav">    0.02    0.02</time>
   <time name="total">    0.03    0.03</time>
   <energy>
    <i name="e_fr_energy">     24.01194670 </i>
    <i name="e_wo_entrp">     24.31096371 </i>
    <i name="e_0_energy">     24.11161904 </i>
   </energy>
  </scstep>
  <scstep>
   <time name="dav">    0.01    0.01</time>
   <time name="total">    0.02    0.02</time>
   <energy>
    <i name="e_fr_energy">     24.24792092 </i>
    <i name="e_wo_entrp">     24.63539370 </i>
    <i name="e_0_energy">     24.37707852 </i>
   </energy>
  </scstep>
  <scstep>
   <time name="dav">    0.01    0.01</time>
   <time name="total">    0.02    0.02</time>
   <energy>
    <i name="e_fr_energy">     23.30574286 </i>
    <i name="e_wo_entrp">     23.36432201 </i>
    <i name="e_0_energy">     23.32526924 </i>
   </energy>
  </scstep>
  <scstep>
   <time name="dav">    0.01    0.01</time>
   <time name="total">    0.02    0.02</time>
   <energy>
    <i name="e_fr_energy">     24.00812520 </i>
    <i name="e_wo_entrp">     24.24609287 </i>
    <i name="e_0_energy">     24.08744776 </i>
   </energy>
  </scstep>
  <scstep>
   <time name="dav">    0.02    0.02</time>
   <time name="total">    0.03    0.03</time>
   <energy>
    <i name="e_fr_energy">     24.13109857 </i>
    <i name="e_wo_entrp">     24.37644113 </i>
    <i name="e_0_energy">     24.21287943 </i>
   </energy>
  </scstep>
  <scstep>
   <time name="dav">    0.01    0.01</time>
   <time name="total">    0.02    0.02</time>
   <energy>
    <i name="e_fr_energy">     23.71333359 </i>
    <i name="e_wo_entrp">     23.79145346 </i>
    <i name="e_0_energy">     23.73937355 </i>
   </energy>
  </scstep>
  <scstep>
   <time name="dav">    0.01    0.01</time>
   <time name="total">    0.02    0.02</time>
   <energy>
    <i name="e_fr_energy">     23.50445227 </i>
    <i name="e_wo_entrp">     23.56086033 </i>
    <i name="e_0_energy">     23.52325496 </i>
   </energy>
  </scstep>
  <scstep>
   <time name="dav">    0.01    0.01</time>
   <time name="total">    0.02    0.02</time>
   <energy>
    <i name="e_fr_energy">     21.22802491 </i>
    <i name="e_wo_entrp">     21.30843015 </i>
    <i name="e_0_energy">     21.25482666 </i>
   </energy>
  </scstep>
  <scstep>
   <time name="dav">    0.02    0.02</time>
   <time name="total">    0.03    0.03</time>
   <energy>
    <i name="e_fr_energy">     19.86585179 </i>
    <i name="e_wo_entrp">     19.95109173 </i>
    <i name="e_0_energy">     19.89426510 </i>
   </energy>
  </scstep>
  <scstep>
   <time name="dav">    0.03    0.03</time>
   <time name="total">    0.04    0.04</time>
   <energy>
    <i name="e_fr_energy">     19.83277455 </i>
    <i name="e_wo_entrp">     19.91704325 </i>
    <i name="e_0_energy">     19.86086412 </i>
   </energy>
  </scstep>
  <scstep>
   <time name="dav">    0.02    0.02</time>
   <time name="total">    0.03    0.03</time>
   <energy>
    <i name="e_fr_energy">     19.61430317 </i>
    <i name="e_wo_entrp">     19.71122302 </i>
    <i name="e_0_energy">     19.64660978 </i>
   </energy>
  </scstep>
  <scstep>
   <time name="dav">    0.02    0.02</time>
   <time name="total">    0.03    0.03</time>
   <energy>
    <i name="e_fr_energy">     19.40257677 </i>
    <i name="e_wo_entrp">     19.50744128 </i>
    <i name="e_0_energy">     19.43753161 </i>
   </energy>
  </scstep>
  <scstep>
   <time name="dav">    0.01    0.01</time>
   <time name="total">    0.02    0.02</time>
   <energy>
    <i name="e_fr_energy">     19.59056174 </i>
    <i name="e_wo_entrp">     19.67233827 </i>
    <i name="e_0_energy">     19.61782059 </i>
   </energy>
  </scstep>
  <scstep>
   <time name="dav">    0.02    0.02</time>
   <time name="total">    0.03    0.03</time>
   <energy>
    <i name="e_fr_energy">     19.24887645 </i>
    <i name="e_wo_entrp">     19.36697132 </i>
    <i name="e_0_energy">     19.28824141 </i>
   </energy>
  </scstep>
  <scstep>
   <time name="dav">    0.01    0.01</time>
   <time name="total">    0.02    0.02</time>
   <energy>
    <i name="e_fr_energy">     19.24770687 </i>
    <i name="e_wo_entrp">     19.36217001 </i>
    <i name="e_0_energy">     19.28586125 </i>
   </energy>
  </scstep>
  <scstep>
   <time name="dav">    0.02    0.02</time>
   <time name="total">    0.03    0.03</time>
   <energy>
    <i name="e_fr_energy">     19.56351186 </i>
    <i name="e_wo_entrp">     19.65418573 </i>
    <i name="e_0_energy">     19.59373648 </i>
   </energy>
  </scstep>
  <scstep>
   <time name="dav">    0.01    0.01</time>
   <time name="total">    0.02    0.02</time>
   <energy>
    <i name="e_fr_energy">     19.41653290 </i>
    <i name="e_wo_entrp">     19.52523237 </i>
    <i name="e_0_energy">     19.45276606 </i>
   </energy>
  </scstep>
  <scstep>
   <time name="dav">    0.02    0.02</time>
   <time name="total">    0.02    0.03</time>
   <energy>
    <i name="e_fr_energy">     19.29320624 </i>
    <i name="e_wo_entrp">     19.40821901 </i>
    <i name="e_0_energy">     19.33154383 </i>
   </energy>
  </scstep>
  <scstep>
   <time name="dav">    0.02    0.02</time>
   <time name="total">    0.03    0.03</time>
   <energy>
    <i name="e_fr_energy">     19.23330289 </i>
    <i name="e_wo_entrp">     19.35053282 </i>
    <i name="e_0_energy">     19.27237953 </i>
   </energy>
  </scstep>
  <scstep>
   <time name="dav">    0.01    0.01</time>
   <time name="total">    0.02    0.02</time>
   <energy>
    <i name="e_fr_energy">     19.21831541 </i>
    <i name="e_wo_entrp">     19.34307314 </i>
    <i name="e_0_energy">     19.25990132 </i>
   </energy>
  </scstep>
  <scstep>
   <time name="dav">    0.01    0.01</time>
   <time name="total">    0.02    0.02</time>
   <energy>
    <i name="e_fr_energy">     18.29277762 </i>
    <i name="e_wo_entrp">     18.38615625 </i>
    <i name="e_0_energy">     18.32390383 </i>
   </energy>
  </scstep>
  <scstep>
   <time name="dav">    0.01    0.01</time>
   <time name="total">    0.02    0.02</time>
   <energy>
    <i name="e_fr_energy">     18.75687239 </i>
    <i name="e_wo_entrp">     18.89842793 </i>
    <i name="e_0_energy">     18.80405757 </i>
   </energy>
  </scstep>
  <scstep>
   <time name="dav">    0.02    0.02</time>
   <time name="total">    0.03    0.03</time>
   <energy>
    <i name="e_fr_energy">     18.27078960 </i>
    <i name="e_wo_entrp">     18.32744170 </i>
    <i name="e_0_energy">     18.28967364 </i>
   </energy>
  </scstep>
  <scstep>
   <time name="dav">    0.02    0.02</time>
   <time name="total">    0.03    0.03</time>
   <energy>
    <i name="e_fr_energy">     18.82844234 </i>
    <i name="e_wo_entrp">     18.97392598 </i>
    <i name="e_0_energy">     18.87693688 </i>
   </energy>
  </scstep>
  <scstep>
   <time name="dav">    0.02    0.02</time>
   <time name="total">    0.03    0.03</time>
   <energy>
    <i name="e_fr_energy">     18.95346185 </i>
    <i name="e_wo_entrp">     19.04407161 </i>
    <i name="e_0_energy">     18.98366511 </i>
   </energy>
  </scstep>
  <scstep>
   <time name="dav">    0.01    0.01</time>
   <time name="total">    0.02    0.02</time>
   <energy>
    <i name="e_fr_energy">     19.53406900 </i>
    <i name="e_wo_entrp">     19.64724594 </i>
    <i name="e_0_energy">     19.57179465 </i>
   </energy>
  </scstep>
  <scstep>
   <time name="dav">    0.04    0.04</time>
   <time name="total">    0.05    0.05</time>
   <energy>
    <i name="e_fr_energy">     19.39744832 </i>
    <i name="e_wo_entrp">     19.49117536 </i>
    <i name="e_0_energy">     19.42869067 </i>
   </energy>
  </scstep>
  <scstep>
   <time name="dav">    0.01    0.01</time>
   <time name="total">    0.02    0.02</time>
   <energy>
    <i name="e_fr_energy">     19.81241274 </i>
    <i name="e_wo_entrp">     19.94090125 </i>
    <i name="e_0_energy">     19.85524224 </i>
   </energy>
  </scstep>
  <scstep>
   <time name="dav">    0.03    0.03</time>
   <time name="total">    0.04    0.04</time>
   <energy>
    <i name="e_fr_energy">     19.88551533 </i>
    <i name="e_wo_entrp">     19.98005307 </i>
    <i name="e_0_energy">     19.91702791 </i>
   </energy>
  </scstep>
  <scstep>
   <time name="dav">    0.01    0.01</time>
   <time name="total">    0.02    0.02</time>
   <energy>
    <i name="e_fr_energy">     20.27035602 </i>
    <i name="e_wo_entrp">     20.44635164 </i>
    <i name="e_0_energy">     20.32902122 </i>
   </energy>
  </scstep>
  <scstep>
   <time name="dav">    0.02    0.02</time>
   <time name="total">    0.03    0.03</time>
   <energy>
    <i name="e_fr_energy">     20.50855708 </i>
    <i name="e_wo_entrp">     20.76571523 </i>
    <i name="e_0_energy">     20.59427646 </i>
   </energy>
  </scstep>
  <scstep>
   <time name="dav">    0.02    0.02</time>
   <time name="total">    0.03    0.03</time>
   <energy>
    <i name="e_fr_energy">     20.53339115 </i>
    <i name="e_wo_entrp">     20.71534385 </i>
    <i name="e_0_energy">     20.59404205 </i>
   </energy>
  </scstep>
  <scstep>
   <time name="dav">    0.02    0.02</time>
   <time name="total">    0.03    0.03</time>
   <energy>
    <i name="e_fr_energy">     20.43161269 </i>
    <i name="e_wo_entrp">     20.66844813 </i>
    <i name="e_0_energy">     20.51055784 </i>
   </energy>
  </scstep>
  <scstep>
   <time name="dav">    0.02    0.02</time>
   <time name="total">    0.03    0.03</time>
   <energy>
    <i name="e_fr_energy">     20.65985228 </i>
    <i name="e_wo_entrp">     20.86898031 </i>
    <i name="e_0_energy">     20.72956162 </i>
   </energy>
  </scstep>
  <scstep>
   <time name="dav">    0.02    0.02</time>
   <time name="total">    0.03    0.03</time>
   <energy>
    <i name="e_fr_energy">     20.62612001 </i>
    <i name="e_wo_entrp">     20.87687123 </i>
    <i name="e_0_energy">     20.70970375 </i>
   </energy>
  </scstep>
  <scstep>
   <time name="dav">    0.03    0.03</time>
   <time name="total">    0.04    0.04</time>
   <energy>
    <i name="e_fr_energy">     20.81473040 </i>
    <i name="e_wo_entrp">     21.03484950 </i>
    <i name="e_0_energy">     20.88810343 </i>
   </energy>
  </scstep>
  <scstep>
   <time name="dav">    0.02    0.02</time>
   <time name="total">    0.03    0.03</time>
   <energy>
    <i name="e_fr_energy">     20.91542398 </i>
    <i name="e_wo_entrp">     21.16438778 </i>
    <i name="e_0_energy">     20.99841191 </i>
   </energy>
  </scstep>
  <scstep>
   <time name="dav">    0.02    0.02</time>
   <time name="total">    0.03    0.03</time>
   <energy>
    <i name="e_fr_energy">     21.21870452 </i>
    <i name="e_wo_entrp">     21.43419120 </i>
    <i name="e_0_energy">     21.29053341 </i>
   </energy>
  </scstep>
  <scstep>
   <time name="dav">    0.02    0.02</time>
   <time name="total">    0.03    0.03</time>
   <energy>
    <i name="e_fr_energy">     21.20067746 </i>
    <i name="e_wo_entrp">     21.45625697 </i>
    <i name="e_0_energy">     21.28587063 </i>
   </energy>
  </scstep>
  <scstep>
   <time name="dav">    0.02    0.02</time>
   <time name="total">    0.03    0.03</time>
   <energy>
    <i name="e_fr_energy">     21.31674266 </i>
    <i name="e_wo_entrp">     21.53859171 </i>
    <i name="e_0_energy">     21.39069234 </i>
   </energy>
  </scstep>
  <scstep>
   <time name="dav">    0.01    0.01</time>
   <time name="total">    0.02    0.02</time>
   <energy>
    <i name="e_fr_energy">     21.32252012 </i>
    <i name="e_wo_entrp">     21.57205312 </i>
    <i name="e_0_energy">     21.40569778 </i>
   </energy>
  </scstep>
  <scstep>
   <time name="dav">    0.02    0.02</time>
   <time name="total">    0.03    0.03</time>
   <energy>
    <i name="e_fr_energy">     20.61059774 </i>
    <i name="e_wo_entrp">     20.88363251 </i>
    <i name="e_0_energy">     20.70160933 </i>
   </energy>
  </scstep>
  <scstep>
   <time name="dav">    0.01    0.01</time>
   <time name="total">    0.02    0.02</time>
   <energy>
    <i name="e_fr_energy">     22.27106848 </i>
    <i name="e_wo_entrp">     22.29977827 </i>
    <i name="e_0_energy">     22.28063841 </i>
   </energy>
  </scstep>
  <scstep>
   <time name="dav">    0.02    0.02</time>
   <time name="total">    0.03    0.03</time>
   <energy>
    <i name="e_fr_energy">     22.69464042 </i>
    <i name="e_wo_entrp">     22.72478968 </i>
    <i name="e_0_energy">     22.70469018 </i>
   </energy>
  </scstep>
  <scstep>
   <time name="dav">    0.01    0.01</time>
   <time name="total">    0.02    0.02</time>
   <energy>
    <i name="e_fr_energy">     23.11090518 </i>
    <i name="e_wo_entrp">     23.19261446 </i>
    <i name="e_0_energy">     23.13814161 </i>
   </energy>
  </scstep>
  <scstep>
   <time name="dav">    0.02    0.02</time>
   <time name="total">    0.03    0.03</time>
   <energy>
    <i name="e_fr_energy">     22.66846594 </i>
    <i name="e_wo_entrp">     22.69020978 </i>
    <i name="e_0_energy">     22.67571388 </i>
   </energy>
  </scstep>
  <scstep>
   <time name="dav">    0.01    0.01</time>
   <time name="total">    0.02    0.02</time>
   <energy>
    <i name="e_fr_energy">     21.12142235 </i>
    <i name="e_wo_entrp">     21.30372172 </i>
    <i name="e_0_energy">     21.18218880 </i>
   </energy>
  </scstep>
  <scstep>
   <time name="dav">    0.02    0.02</time>
   <time name="total">    0.03    0.03</time>
   <energy>
    <i name="e_fr_energy">     21.31743265 </i>
    <i name="e_wo_entrp">     21.50978091 </i>
    <i name="e_0_energy">     21.38154874 </i>
   </energy>
  </scstep>
  <scstep>
   <time name="dav">    0.02    0.02</time>
   <time name="total">    0.03    0.03</time>
   <energy>
    <i name="e_fr_energy">     21.74398662 </i>
    <i name="e_wo_entrp">     21.96704826 </i>
    <i name="e_0_energy">     21.81834050 </i>
   </energy>
  </scstep>
  <scstep>
   <time name="dav">    0.02    0.02</time>
   <time name="total">    0.03    0.03</time>
   <energy>
    <i name="alphaZ">    594.32374129 </i>
    <i name="ewald">  -6542.72582504 </i>
    <i name="hartreedc">   -771.41021082 </i>
    <i name="XCdc">    142.30093303 </i>
    <i name="pawpsdc">  14536.12731338 </i>
    <i name="pawaedc"> -14432.21128593 </i>
    <i name="eentropy">     -0.23928929 </i>
    <i name="bandstr">    181.20328780 </i>
    <i name="atom">   6314.32970236 </i>
    <i name="e_fr_energy">     21.69836680 </i>
    <i name="e_wo_entrp">     21.93765608 </i>
    <i name="e_0_energy">     21.77812989 </i>
   </energy>
  </scstep>
  <structure>
   <crystal>
    <varray name="basis" >
     <v>       3.50000000       0.00000000       0.00000000 </v>
     <v>       0.00000000       3.50000000       0.00000000 </v>
     <v>       0.00000000       0.00000000       3.50000000 </v>
    </varray>
    <i name="volume">     42.87500000 </i>
    <varray name="rec_basis" >
     <v>       0.28571429       0.00000000       0.00000000 </v>
     <v>       0.00000000       0.28571429       0.00000000 </v>
     <v>       0.00000000       0.00000000       0.28571429 </v>
    </varray>
   </crystal>
   <varray name="positions" >
    <v>       0.00000000       0.00000000       0.00000000 </v>
    <v>       0.50000000       0.50000000       0.00000000 </v>
    <v>       0.00000000       0.50000000       0.50000000 </v>
    <v>       0.50000000       0.00000000       0.50000000 </v>
   </varray>
  </structure>
  <varray name="forces" >
   <v>       0.00000000       0.00000000       0.00000000 </v>
   <v>       0.00000000       0.00000000       0.00000000 </v>
   <v>       0.00000000       0.00000000       0.00000000 </v>
   <v>       0.00000000       0.00000000       0.00000000 </v>
  </varray>
  <varray name="stress" >
   <v>    5458.39939158       0.00000000      -0.00000000 </v>
   <v>       0.00000000    5458.39939158      -0.00000000 </v>
   <v>       0.00000000      -0.00000000    5669.50707724 </v>
  </varray>
  <energy>
   <i name="e_fr_energy">     21.69836680 </i>
   <i name="e_wo_entrp">     21.93765608 </i>
   <i name="e_0_energy">     21.77812989 </i>
  </energy>
  <time name="totalsc">    1.70    1.72</time>
  <eigenvalues>
   <array>
    <dimension dim="1">band</dimension>
    <dimension dim="2">kpoint</dimension>
    <dimension dim="3">spin</dimension>
    <field>eigene</field>
    <field>occ</field>
    <set>
     <set comment="spin 1">
      <set comment="kpoint 1">
       <r>  -35.6957    1.0000 </r>
       <r>  -35.5229    1.0000 </r>
       <r>  -35.5229    1.0000 </r>
       <r>  -32.9577    1.0000 </r>
       <r>  -32.9577    1.0000 </r>
       <r>  -32.4846    1.0000 </r>
       <r>    5.1045    1.0000 </r>
       <r>    7.5475    1.0000 </r>
       <r>    7.9268    1.0000 </r>
       <r>    8.4608    1.0000 </r>
       <r>    8.6117    1.0000 </r>
       <r>    8.6721    1.0000 </r>
       <r>    8.6721    1.0000 </r>
       <r>   13.3511    1.0000 </r>
       <r>   13.5941    1.0000 </r>
       <r>   13.5941    1.0000 </r>
       <r>   17.1409    1.0000 </r>
       <r>   17.1524    1.0000 </r>
       <r>   20.1655    1.0000 </r>
       <r>   20.5305    1.0000 </r>
       <r>   20.5644    1.0001 </r>
       <r>   20.6099    1.0002 </r>
       <r>   20.6099    1.0002 </r>
       <r>   21.0993    0.8146 </r>
       <r>   21.1389    0.6724 </r>
       <r>   21.1389    0.6724 </r>
       <r>   21.1918    0.4530 </r>
       <r>   21.2076    0.3870 </r>
       <r>   21.9049   -0.0000 </r>
       <r>   21.9049   -0.0000 </r>
       <r>   32.0935    0.0000 </r>
       <r>   32.0940    0.0000 </r>
      </set>
     </set>
    </set>
   </array>
  </eigenvalues>
  <separator name="orbital magnetization" >
   <v name="MAGDIPOLOUT">      0.00000000      0.00000000      0.00000000</v>
  </separator>
  <dos>
   <i name="efermi">     21.18063774 </i>
   <total>
    <array>
     <dimension dim="1">gridpoints</dimension>
     <dimension dim="2">spin</dimension>
     <field>energy</field>
     <field>total</field>
     <field>integrated</field>
     <set>
      <set comment="spin 1">
       <r>   -39.0851     0.0000     0.0000 </r>
       <r>   -38.8366     0.0000     0.0000 </r>
       <r>   -38.5880     0.0000     0.0000 </r>
       <r>   -38.3395     0.0000     0.0000 </r>
       <r>   -38.0909     0.0000     0.0000 </r>
       <r>   -37.8423     0.0000     0.0000 </r>
       <r>   -37.5938     0.0000     0.0000 </r>
       <r>   -37.3452    -0.0000    -0.0000 </r>
       <r>   -37.0966    -0.0000    -0.0000 </r>
       <r>   -36.8481    -0.0000    -0.0000 </r>
       <r>   -36.5995    -0.0000    -0.0000 </r>
       <r>   -36.3510    -0.0001    -0.0000 </r>
       <r>   -36.1024    -0.0601    -0.0150 </r>
       <r>   -35.8538    -0.1716    -0.0576 </r>
       <r>   -35.6053     9.9430     2.4138 </r>
       <r>   -35.3567    14.5399     6.0279 </r>
       <r>   -35.1081    -0.0105     6.0253 </r>
       <r>   -34.8596    -0.1014     6.0001 </r>
       <r>   -34.6110    -0.0002     6.0000 </r>
       <r>   -34.3625    -0.0000     6.0000 </r>
       <r>   -34.1139    -0.0000     6.0000 </r>
       <r>   -33.8653    -0.0000     6.0000 </r>
       <r>   -33.6168    -0.0003     5.9999 </r>
       <r>   -33.3682    -0.1079     5.9731 </r>
       <r>   -33.1196     0.2290     6.0300 </r>
       <r>   -32.8711    13.1760     9.3051 </r>
       <r>   -32.6225     3.4635    10.1660 </r>
       <r>   -32.3740     6.5591    11.7963 </r>
       <r>   -32.1254     0.9368    12.0292 </r>
       <r>   -31.8768    -0.1168    12.0002 </r>
       <r>   -31.6283    -0.0006    12.0000 </r>
       <r>   -31.3797    -0.0000    12.0000 </r>
       <r>   -31.1311    -0.0000    12.0000 </r>
       <r>   -30.8826     0.0000    12.0000 </r>
       <r>   -30.6340     0.0000    12.0000 </r>
       <r>   -30.3855     0.0000    12.0000 </r>
       <r>   -30.1369     0.0000    12.0000 </r>
       <r>   -29.8883     0.0000    12.0000 </r>
       <r>   -29.6398     0.0000    12.0000 </r>
       <r>   -29.3912     0.0000    12.0000 </r>
       <r>   -29.1427     0.0000    12.0000 </r>
       <r>   -28.8941     0.0000    12.0000 </r>
       <r>   -28.6455     0.0000    12.0000 </r>
       <r>   -28.3970     0.0000    12.0000 </r>
       <r>   -28.1484     0.0000    12.0000 </r>
       <r>   -27.8998     0.0000    12.0000 </r>
       <r>   -27.6513     0.0000    12.0000 </r>
       <r>   -27.4027     0.0000    12.0000 </r>
       <r>   -27.1542     0.0000    12.0000 </r>
       <r>   -26.9056     0.0000    12.0000 </r>
       <r>   -26.6570     0.0000    12.0000 </r>
       <r>   -26.4085     0.0000    12.0000 </r>
       <r>   -26.1599     0.0000    12.0000 </r>
       <r>   -25.9113     0.0000    12.0000 </r>
       <r>   -25.6628     0.0000    12.0000 </r>
       <r>   -25.4142     0.0000    12.0000 </r>
       <r>   -25.1657     0.0000    12.0000 </r>
       <r>   -24.9171     0.0000    12.0000 </r>
       <r>   -24.6685     0.0000    12.0000 </r>
       <r>   -24.4200     0.0000    12.0000 </r>
       <r>   -24.1714     0.0000    12.0000 </r>
       <r>   -23.9228     0.0000    12.0000 </r>
       <r>   -23.6743     0.0000    12.0000 </r>
       <r>   -23.4257     0.0000    12.0000 </r>
       <r>   -23.1772     0.0000    12.0000 </r>
       <r>   -22.9286     0.0000    12.0000 </r>
       <r>   -22.6800     0.0000    12.0000 </r>
       <r>   -22.4315     0.0000    12.0000 </r>
       <r>   -22.1829     0.0000    12.0000 </r>
       <r>   -21.9343     0.0000    12.0000 </r>
       <r>   -21.6858     0.0000    12.0000 </r>
       <r>   -21.4372     0.0000    12.0000 </r>
       <r>   -21.1887     0.0000    12.0000 </r>
       <r>   -20.9401     0.0000    12.0000 </r>
       <r>   -20.6915     0.0000    12.0000 </r>
       <r>   -20.4430     0.0000    12.0000 </r>
       <r>   -20.1944     0.0000    12.0000 </r>
       <r>   -19.9459     0.0000    12.0000 </r>
       <r>   -19.6973     0.0000    12.0000 </r>
       <r>   -19.4487     0.0000    12.0000 </r>
       <r>   -19.2002     0.0000    12.0000 </r>
       <r>   -18.9516     0.0000    12.0000 </r>
       <r>   -18.7030     0.0000    12.0000 </r>
       <r>   -18.4545     0.0000    12.0000 </r>
       <r>   -18.2059     0.0000    12.0000 </r>
       <r>   -17.9574     0.0000    12.0000 </r>
       <r>   -17.7088     0.0000    12.0000 </r>
       <r>   -17.4602     0.0000    12.0000 </r>
       <r>   -17.2117     0.0000    12.0000 </r>
       <r>   -16.9631     0.0000    12.0000 </r>
       <r>   -16.7145     0.0000    12.0000 </r>
       <r>   -16.4660     0.0000    12.0000 </r>
       <r>   -16.2174     0.0000    12.0000 </r>
       <r>   -15.9689     0.0000    12.0000 </r>
       <r>   -15.7203     0.0000    12.0000 </r>
       <r>   -15.4717     0.0000    12.0000 </r>
       <r>   -15.2232     0.0000    12.0000 </r>
       <r>   -14.9746     0.0000    12.0000 </r>
       <r>   -14.7260     0.0000    12.0000 </r>
       <r>   -14.4775     0.0000    12.0000 </r>
       <r>   -14.2289     0.0000    12.0000 </r>
       <r>   -13.9804     0.0000    12.0000 </r>
       <r>   -13.7318     0.0000    12.0000 </r>
       <r>   -13.4832     0.0000    12.0000 </r>
       <r>   -13.2347     0.0000    12.0000 </r>
       <r>   -12.9861     0.0000    12.0000 </r>
       <r>   -12.7375     0.0000    12.0000 </r>
       <r>   -12.4890     0.0000    12.0000 </r>
       <r>   -12.2404     0.0000    12.0000 </r>
       <r>   -11.9919     0.0000    12.0000 </r>
       <r>   -11.7433     0.0000    12.0000 </r>
       <r>   -11.4947     0.0000    12.0000 </r>
       <r>   -11.2462     0.0000    12.0000 </r>
       <r>   -10.9976     0.0000    12.0000 </r>
       <r>   -10.7490     0.0000    12.0000 </r>
       <r>   -10.5005     0.0000    12.0000 </r>
       <r>   -10.2519     0.0000    12.0000 </r>
       <r>   -10.0034     0.0000    12.0000 </r>
       <r>    -9.7548     0.0000    12.0000 </r>
       <r>    -9.5062     0.0000    12.0000 </r>
       <r>    -9.2577     0.0000    12.0000 </r>
       <r>    -9.0091     0.0000    12.0000 </r>
       <r>    -8.7606     0.0000    12.0000 </r>
       <r>    -8.5120     0.0000    12.0000 </r>
       <r>    -8.2634     0.0000    12.0000 </r>
       <r>    -8.0149     0.0000    12.0000 </r>
       <r>    -7.7663     0.0000    12.0000 </r>
       <r>    -7.5177     0.0000    12.0000 </r>
       <r>    -7.2692     0.0000    12.0000 </r>
       <r>    -7.0206     0.0000    12.0000 </r>
       <r>    -6.7721     0.0000    12.0000 </r>
       <r>    -6.5235     0.0000    12.0000 </r>
       <r>    -6.2749     0.0000    12.0000 </r>
       <r>    -6.0264     0.0000    12.0000 </r>
       <r>    -5.7778     0.0000    12.0000 </r>
       <r>    -5.5292     0.0000    12.0000 </r>
       <r>    -5.2807     0.0000    12.0000 </r>
       <r>    -5.0321     0.0000    12.0000 </r>
       <r>    -4.7836     0.0000    12.0000 </r>
       <r>    -4.5350     0.0000    12.0000 </r>
       <r>    -4.2864     0.0000    12.0000 </r>
       <r>    -4.0379     0.0000    12.0000 </r>
       <r>    -3.7893     0.0000    12.0000 </r>
       <r>    -3.5407     0.0000    12.0000 </r>
       <r>    -3.2922     0.0000    12.0000 </r>
       <r>    -3.0436     0.0000    12.0000 </r>
       <r>    -2.7951     0.0000    12.0000 </r>
       <r>    -2.5465     0.0000    12.0000 </r>
       <r>    -2.2979     0.0000    12.0000 </r>
       <r>    -2.0494     0.0000    12.0000 </r>
       <r>    -1.8008     0.0000    12.0000 </r>
       <r>    -1.5522     0.0000    12.0000 </r>
       <r>    -1.3037     0.0000    12.0000 </r>
       <r>    -1.0551     0.0000    12.0000 </r>
       <r>    -0.8066     0.0000    12.0000 </r>
       <r>    -0.5580     0.0000    12.0000 </r>
       <r>    -0.3094     0.0000    12.0000 </r>
       <r>    -0.0609     0.0000    12.0000 </r>
       <r>     0.1877     0.0000    12.0000 </r>
       <r>     0.4363     0.0000    12.0000 </r>
       <r>     0.6848     0.0000    12.0000 </r>
       <r>     0.9334     0.0000    12.0000 </r>
       <r>     1.1819     0.0000    12.0000 </r>
       <r>     1.4305     0.0000    12.0000 </r>
       <r>     1.6791     0.0000    12.0000 </r>
       <r>     1.9276     0.0000    12.0000 </r>
       <r>     2.1762     0.0000    12.0000 </r>
       <r>     2.4247     0.0000    12.0000 </r>
       <r>     2.6733     0.0000    12.0000 </r>
       <r>     2.9219     0.0000    12.0000 </r>
       <r>     3.1704     0.0000    12.0000 </r>
       <r>     3.4190    -0.0000    12.0000 </r>
       <r>     3.6676    -0.0000    12.0000 </r>
       <r>     3.9161    -0.0000    12.0000 </r>
       <r>     4.1647    -0.0000    12.0000 </r>
       <r>     4.4132    -0.0000    12.0000 </r>
       <r>     4.6618    -0.0304    11.9924 </r>
       <r>     4.9104    -0.1449    11.9564 </r>
       <r>     5.1589     5.9786    13.4425 </r>
       <r>     5.4075     2.4600    14.0539 </r>
       <r>     5.6561    -0.2143    14.0007 </r>
       <r>     5.9046    -0.0027    14.0000 </r>
       <r>     6.1532    -0.0000    14.0000 </r>
       <r>     6.4017    -0.0000    14.0000 </r>
       <r>     6.6503    -0.0000    14.0000 </r>
       <r>     6.8989    -0.0002    14.0000 </r>
       <r>     7.1474    -0.0641    13.9840 </r>
       <r>     7.3960     0.2336    14.0421 </r>
       <r>     7.6446     6.5132    15.6610 </r>
       <r>     7.8931     4.3965    16.7538 </r>
       <r>     8.1417     5.0516    18.0095 </r>
       <r>     8.3902     0.9896    18.2554 </r>
       <r>     8.6388    17.8477    22.6917 </r>
       <r>     8.8874    14.1168    26.2006 </r>
       <r>     9.1359    -0.7615    26.0113 </r>
       <r>     9.3845    -0.0456    26.0000 </r>
       <r>     9.6331    -0.0000    26.0000 </r>
       <r>     9.8816    -0.0000    26.0000 </r>
       <r>    10.1302    -0.0000    26.0000 </r>
       <r>    10.3787     0.0000    26.0000 </r>
       <r>    10.6273     0.0000    26.0000 </r>
       <r>    10.8759     0.0000    26.0000 </r>
       <r>    11.1244     0.0000    26.0000 </r>
       <r>    11.3730     0.0000    26.0000 </r>
       <r>    11.6216    -0.0000    26.0000 </r>
       <r>    11.8701    -0.0000    26.0000 </r>
       <r>    12.1187    -0.0000    26.0000 </r>
       <r>    12.3672    -0.0000    26.0000 </r>
       <r>    12.6158    -0.0000    26.0000 </r>
       <r>    12.8644    -0.0125    25.9969 </r>
       <r>    13.1129    -0.2994    25.9225 </r>
       <r>    13.3615     4.1280    26.9485 </r>
       <r>    13.6100    13.6350    30.3377 </r>
       <r>    13.8586     7.2455    32.1387 </r>
       <r>    14.1072    -0.5440    32.0034 </r>
       <r>    14.3557    -0.0139    32.0000 </r>
       <r>    14.6043    -0.0000    32.0000 </r>
       <r>    14.8529    -0.0000    32.0000 </r>
       <r>    15.1014     0.0000    32.0000 </r>
       <r>    15.3500    -0.0000    32.0000 </r>
       <r>    15.5985    -0.0000    32.0000 </r>
       <r>    15.8471    -0.0000    32.0000 </r>
       <r>    16.0957    -0.0000    32.0000 </r>
       <r>    16.3442    -0.0000    32.0000 </r>
       <r>    16.5928    -0.0052    31.9987 </r>
       <r>    16.8414    -0.4203    31.8942 </r>
       <r>    17.0899     4.7784    33.0820 </r>
       <r>    17.3385    12.0622    36.0802 </r>
       <r>    17.5870    -0.2587    36.0159 </r>
       <r>    17.8356    -0.0638    36.0000 </r>
       <r>    18.0842    -0.0001    36.0000 </r>
       <r>    18.3327    -0.0000    36.0000 </r>
       <r>    18.5813    -0.0000    36.0000 </r>
       <r>    18.8299    -0.0000    36.0000 </r>
       <r>    19.0784    -0.0000    36.0000 </r>
       <r>    19.3270    -0.0000    36.0000 </r>
       <r>    19.5755    -0.0010    35.9998 </r>
       <r>    19.8241    -0.1459    35.9635 </r>
       <r>    20.0727     1.3147    36.2903 </r>
       <r>    20.3212     5.7482    37.7190 </r>
       <r>    20.5698    16.0913    41.7187 </r>
       <r>    20.8184    17.4206    46.0488 </r>
       <r>    21.0669     7.1493    47.8259 </r>
       <r>    21.3155    31.8164    55.7342 </r>
       <r>    21.5640     1.0970    56.0069 </r>
       <r>    21.8126     2.4179    56.6079 </r>
       <r>    22.0612    13.4081    59.9407 </r>
       <r>    22.3097     0.3575    60.0295 </r>
       <r>    22.5583    -0.1185    60.0001 </r>
       <r>    22.8068    -0.0003    60.0000 </r>
       <r>    23.0554    -0.0000    60.0000 </r>
       <r>    23.3040    -0.0000    60.0000 </r>
       <r>    23.5525     0.0000    60.0000 </r>
       <r>    23.8011     0.0000    60.0000 </r>
       <r>    24.0497     0.0000    60.0000 </r>
       <r>    24.2982     0.0000    60.0000 </r>
       <r>    24.5468     0.0000    60.0000 </r>
       <r>    24.7953     0.0000    60.0000 </r>
       <r>    25.0439     0.0000    60.0000 </r>
       <r>    25.2925     0.0000    60.0000 </r>
       <r>    25.5410     0.0000    60.0000 </r>
       <r>    25.7896     0.0000    60.0000 </r>
       <r>    26.0382     0.0000    60.0000 </r>
       <r>    26.2867     0.0000    60.0000 </r>
       <r>    26.5353     0.0000    60.0000 </r>
       <r>    26.7838     0.0000    60.0000 </r>
       <r>    27.0324     0.0000    60.0000 </r>
       <r>    27.2810     0.0000    60.0000 </r>
       <r>    27.5295     0.0000    60.0000 </r>
       <r>    27.7781     0.0000    60.0000 </r>
       <r>    28.0267     0.0000    60.0000 </r>
       <r>    28.2752     0.0000    60.0000 </r>
       <r>    28.5238     0.0000    60.0000 </r>
       <r>    28.7723     0.0000    60.0000 </r>
       <r>    29.0209     0.0000    60.0000 </r>
       <r>    29.2695     0.0000    60.0000 </r>
       <r>    29.5180     0.0000    60.0000 </r>
       <r>    29.7666     0.0000    60.0000 </r>
       <r>    30.0152     0.0000    60.0000 </r>
       <r>    30.2637    -0.0000    60.0000 </r>
       <r>    30.5123    -0.0000    60.0000 </r>
       <r>    30.7608    -0.0000    60.0000 </r>
       <r>    31.0094    -0.0000    60.0000 </r>
       <r>    31.2580    -0.0000    60.0000 </r>
       <r>    31.5065    -0.0021    59.9995 </r>
       <r>    31.7551    -0.3010    59.9246 </r>
       <r>    32.0037     2.8504    60.6331 </r>
       <r>    32.2522    13.3531    63.9522 </r>
       <r>    32.5008     0.3070    64.0285 </r>
       <r>    32.7493    -0.1144    64.0001 </r>
       <r>    32.9979    -0.0003    64.0000 </r>
       <r>    33.2465    -0.0000    64.0000 </r>
       <r>    33.4950    -0.0000    64.0000 </r>
       <r>    33.7436     0.0000    64.0000 </r>
       <r>    33.9921     0.0000    64.0000 </r>
       <r>    34.2407     0.0000    64.0000 </r>
       <r>    34.4893     0.0000    64.0000 </r>
       <r>    34.7378     0.0000    64.0000 </r>
       <r>    34.9864     0.0000    64.0000 </r>
       <r>    35.2350     0.0000    64.0000 </r>
       <r>    35.4835     0.0000    64.0000 </r>
      </set>
     </set>
    </array>
   </total>
  </dos>
 </calculation>
 <structure name="finalpos" >
  <crystal>
   <varray name="basis" >
    <v>       3.50000000       0.00000000       0.00000000 </v>
    <v>       0.00000000       3.50000000       0.00000000 </v>
    <v>       0.00000000       0.00000000       3.50000000 </v>
   </varray>
   <i name="volume">     42.87500000 </i>
   <varray name="rec_basis" >
    <v>       0.28571429       0.00000000       0.00000000 </v>
    <v>       0.00000000       0.28571429       0.00000000 </v>
    <v>       0.00000000       0.00000000       0.28571429 </v>
   </varray>
  </crystal>
  <varray name="positions" >
   <v>       0.00000000       0.00000000       0.00000000 </v>
   <v>       0.50000000       0.50000000       0.00000000 </v>
   <v>       0.00000000       0.50000000       0.50000000 </v>
   <v>       0.50000000       0.00000000       0.50000000 </v>
  </varray>
 </structure>
</modeling>
