unknown system                          
           1
     3.500000    0.000000    0.000000
     0.000000    3.500000    0.000000
     0.000000    0.000000    3.500000
   Pt   Pt   Pt
     1     1     2
Direct configuration=     1
   0.00000000  0.00000000  0.00000000
   0.50000000  0.50000000  0.00000000
   0.00000000  0.50000000  0.50000000
   0.50000000  0.00000000  0.50000000
